 Gaussian 16, Revision C.02,

 ----------------------------------------------------------------------
 #p B3LYP/6-31G(d,p) EmpiricalDispersion=GD3BJ opt freq scf(xqc,tight)
 integral(grid=ultrafine)
 ----------------------------------------------------------------------

 ----------------------------------
 opt-freq conformers_unique/conf_ab
 ----------------------------------
 Symbolic Z-matrix:
 Charge =  0 Multiplicity = 1

 SCF Done:  E(RB3LYP) =  -2989.72028925     A.U. after   15 cycles
 SCF Done:  E(RB3LYP) =  -2989.72202870     A.U. after   12 cycles
 SCF Done:  E(RB3LYP) =  -2989.72222486     A.U. after   11 cycles
 SCF Done:  E(RB3LYP) =  -2989.72223571     A.U. after   10 cycles
 SCF Done:  E(RB3LYP) =  -2989.72222752     A.U. after   10 cycles
 SCF Done:  E(RB3LYP) =  -2989.72223933     A.U. after   10 cycles
 Optimization completed.
    -- Stationary point found.
 Normal termination of Gaussian 16 at Tue Sep 17 09:52:35 2024.

 ----------------------------------------------------------------------
 #P Geom=AllCheck Guess=TCheck SCRF=Check GenChk RB3LYP/6-31G(d,p) Freq
 ----------------------------------------------------------------------

 Structure from the checkpoint file:  "smiles_00072_conf_1.chk"
 ----------------------------------
 opt-freq conformers_unique/conf_ab
 ----------------------------------
 Charge =  0 Multiplicity = 1

 SCF Done:  E(RB3LYP) =  -2989.72223933     A.U. after    1 cycles

                      1                      2                      3
                      A                      A                      A
 Frequencies --     72.7390               124.1389               132.6012
 Red. masses --      9.5860                11.5605                 8.0231
 Frc consts  --      0.0299                 0.1050                 0.0831
 IR Inten    --      0.3296                 1.0299                 2.1900

                      4                      5                      6
                      A                      A                      A
 Frequencies --    251.2125               265.0547               330.8752
 Red. masses --      6.3657                 8.7279                 9.6141
 Frc consts  --      0.2367                 0.3613                 0.6201
 IR Inten    --      0.2384                 0.3497                 0.5448

                      7                      8                      9
                      A                      A                      A
 Frequencies --    457.6763               527.2920               544.2239
 Red. masses --      7.9293                 7.6399                 1.3647
 Frc consts  --      0.9786                 1.2515                 0.2382
 IR Inten    --     21.5601                 3.5248                63.6767

                     10                     11                     12
                      A                      A                      A
 Frequencies --    633.5262               643.0282               700.2426
 Red. masses --      2.7374                 6.8064                 4.0788
 Frc consts  --      0.6473                 1.6582                 1.1784
 IR Inten    --     30.9500                 9.6505                52.1976

                     13                     14                     15
                      A                      A                      A
 Frequencies --    757.5899               819.3644               898.3342
 Red. masses --      6.1714                 1.2619                 1.3903
 Frc consts  --      2.0869                 0.4992                 0.6611
 IR Inten    --     43.5345                29.9784                 0.0974

                     16                     17                     18
                      A                      A                      A
 Frequencies --    947.1700               970.0676              1046.0192
 Red. masses --      6.8009                 6.9750                 1.3177
 Frc consts  --      3.5948                 3.8672                 0.8495
 IR Inten    --     32.7124                 6.6840                35.0057

                     19                     20                     21
                      A                      A                      A
 Frequencies --   1136.4169              1162.0089              1240.3901
 Red. masses --      4.2274                 2.6284                 2.2414
 Frc consts  --      3.2166                 2.0911                 2.0318
 IR Inten    --    360.3392                 8.1506                40.4990

                     22                     23                     24
                      A                      A                      A
 Frequencies --   1262.0328              1386.9186              1412.9420
 Red. masses --      2.5177                 3.1610                 4.7916
 Frc consts  --      2.3626                 3.5824                 5.6361
 IR Inten    --     22.3866                18.3482                86.8844

                     25                     26                     27
                      A                      A                      A
 Frequencies --   1504.6956              1623.3571              1835.0071
 Red. masses --      7.6558                 6.7245                10.1856
 Frc consts  --     10.2127                10.4409                20.2075
 IR Inten    --    285.5449                21.6539               369.4171

                     28                     29                     30
                      A                      A                      A
 Frequencies --   3281.4211              3294.3878              3770.6341
 Red. masses --      1.0942                 1.1021                 1.0643
 Frc consts  --      6.9418                 7.0470                 8.9159
 IR Inten    --      0.2434                 0.9466                98.1263

 - Thermochemistry -
 -------------------
 Temperature   298.150 Kelvin.  Pressure   1.00000 Atm.
 Atom     1 has atomic number  8 and mass  15.99491

 Molecular mass:   189.92656 amu.
 Principal axes and moments of inertia in atomic units:
                           1         2         3
     Eigenvalues --   505.348813519.869344025.21815
           X            0.99999   0.00533   0.00000
           Y           -0.00533   0.99999   0.00000
           Z           -0.00000  -0.00000   1.00000
 This molecule is an asymmetric top.
 Rotational symmetry number  1.
 Warning -- assumption of classical behavior for rotation
           may cause significant error
 Rotational temperatures (Kelvin)      0.17139     0.02461     0.02152
 Rotational constants (GHZ):           3.57128     0.51273     0.44836
 Zero-point vibrational energy     197571.5 (Joules/Mol)
                                   47.22071 (Kcal/Mol)
 Warning -- explicit consideration of   9 degrees of freedom as
           vibrations may cause significant error
 Vibrational temperatures:    104.66   178.61   190.78   361.44   381.35
          (Kelvin)            476.06   658.49   758.66   783.02   911.50
                              925.17  1007.49  1090.00  1178.88  1292.50
                             1362.77  1395.71  1504.99  1635.05  1671.87
                             1784.64  1815.78  1995.47  2032.91  2164.92
                             2335.65  2640.17  4721.23  4739.89  5425.10

 Zero-point correction=                           0.075251 (Hartree/Particle)
 Thermal correction to Energy=                    0.083045
 Thermal correction to Enthalpy=                  0.083989
 Thermal correction to Gibbs Free Energy=         0.040888
 Sum of electronic and zero-point Energies=          -2989.646988
 Sum of electronic and thermal Energies=             -2989.639194
 Sum of electronic and thermal Enthalpies=           -2989.638250
 Sum of electronic and thermal Free Energies=        -2989.681351

                     E (Thermal)             CV                S
                      KCal/Mol        Cal/Mol-Kelvin    Cal/Mol-Kelvin
 Total                   52.112             27.517             90.714
 Electronic               0.000              0.000              0.000
 Translational            0.889              2.981             41.630
 Rotational               0.889              2.981             30.349
 Vibrational             50.334             21.556             18.734
 Vibration     1          0.599              1.967              4.078
 Vibration     2          0.610              1.929              3.035
 Vibration     3          0.613              1.921              2.908
 Vibration     4          0.663              1.761              1.722
 Vibration     5          0.671              1.737              1.628
 Vibration     6          0.713              1.614              1.256
 Vibration     7          0.816              1.344              0.773
 Vibration     8          0.882              1.190              0.593
 Vibration     9          0.899              1.152              0.556

 Optimization completed.
    -- Stationary point found.
 Normal termination of Gaussian 16 at Tue Sep 17 09:53:09 2024.

 ----------------------------------------------------------------------
 #p M062X/def2tzvp geom=check guess=read scf(xqc,tight) integral(grid=u
 ltrafine) scrf(SMD, solvent=1,4-Dioxane) polar prop=efg volume
 ----------------------------------------------------------------------

 ---
 spe
 ---
 Structure from the checkpoint file:  "smiles_00072_conf_1.chk"
 Charge =  0 Multiplicity = 1

 SCF Done:  E(RM062X) =  -2992.20995340     A.U. after   13 cycles

  Exact polarizability:     141.695       1.049      99.012      -0.000      -0.000      54.677
 Approx polarizability:     138.243      -0.367     121.949      -0.000       0.000      67.763

 Normal termination of Gaussian 16 at Tue Sep 17 10:00:10 2024.
 Gaussian 16:  ES64L-G16RevC.02  7-Dec-2021

 ----------------------------------------------------------------------
 #p M062X/def2tzvp geom=check guess=read scf(xqc,tight) integral(grid=u
 ltrafine) scrf(SMD, solvent=1,4-Dioxane) nmr=giao
 ----------------------------------------------------------------------

 ---
 spe
 ---
 Structure from the checkpoint file:  "smiles_00072_conf_1.chk"
 Charge =  0 Multiplicity = 1

                         Standard orientation:
 ---------------------------------------------------------------------
 Center     Atomic      Atomic             Coordinates (Angstroms)
 Number     Number       Type             X           Y           Z
 ---------------------------------------------------------------------
      1          8           0       -2.809364   -1.694574    0.000015
      2          6           0       -2.699912   -0.487554    0.000160
      3          8           0       -3.759521    0.363653   -0.000149
      4          6           0       -1.442202    0.254922    0.000083
      5          6           0       -1.135540    1.590373    0.000005
      6          6           0        0.285656    1.685079    0.000057
      7          6           0        0.731467    0.391891    0.000004
      8         35           0        2.454701   -0.308783   -0.000025
      9          8           0       -0.287318   -0.490435    0.000036
     10          1           0       -4.549267   -0.201737   -0.000268
     11          1           0       -1.850547    2.398962   -0.000013
     12          1           0        0.898072    2.572785    0.000076
 ---------------------------------------------------------------------

 SCF Done:  E(RM062X) =  -2992.20995340     A.U. after    1 cycles

      1  O    Isotropic =  -121.9996   Anisotropy =   606.3733

      2  C    Isotropic =    11.1661   Anisotropy =    98.4718

      3  O    Isotropic =   122.3290   Anisotropy =   216.6888

      4  C    Isotropic =    19.7409   Anisotropy =   107.1482

      5  C    Isotropic =    43.3462   Anisotropy =   177.1809

      6  C    Isotropic =    52.6170   Anisotropy =   140.6737

      7  C    Isotropic =    15.7966   Anisotropy =    78.8377

      8  Br   Isotropic =  2103.0502   Anisotropy =  1199.7366

      9  O    Isotropic =   -23.5525   Anisotropy =   311.4668

     10  H    Isotropic =    25.6229   Anisotropy =    11.1697

     11  H    Isotropic =    23.8392   Anisotropy =     4.2964

     12  H    Isotropic =    24.6983   Anisotropy =     6.2849

 The electronic state is 1-A.
 Alpha  occ. eigenvalues -- -485.40179 -63.38659 -57.20615 -57.20359 -57.20353
 Alpha  occ. eigenvalues --  -19.72598 -19.68291 -19.63006 -10.69611 -10.66779
 Alpha  occ. eigenvalues --  -10.62198 -10.57417 -10.56683  -9.05328  -6.87789
 Alpha  occ. eigenvalues --   -6.86828  -6.86809  -2.91173  -2.90817  -2.90791
 Alpha  occ. eigenvalues --   -2.89899  -2.89898  -1.27331  -1.24170  -1.14994
 Alpha  occ. eigenvalues --   -0.94180  -0.93159  -0.85817  -0.74821  -0.71642
 Alpha  occ. eigenvalues --   -0.66113  -0.62463  -0.58719  -0.58202  -0.54911
 Alpha  occ. eigenvalues --   -0.53575  -0.51838  -0.49692  -0.48504  -0.46927
 Alpha  occ. eigenvalues --   -0.41348  -0.40133  -0.37946  -0.37405  -0.37151
 Alpha  occ. eigenvalues --   -0.29853
 Alpha virt. eigenvalues --   -0.02747   0.03180   0.05440   0.07232   0.09501
 Alpha virt. eigenvalues --    0.11932   0.12222   0.13240   0.15911   0.17514
 Alpha virt. eigenvalues --    0.17811   0.20066   0.21168   0.21380   0.24760

 Mulliken charges:
               1
     1  O   -0.328884
     2  C    0.307519
     3  O   -0.415131
     4  C    0.156092
     5  C   -0.191965
     6  C   -0.151422
     7  C    0.110370
     8  Br  -0.018852
     9  O   -0.206371
    10  H    0.357060
    11  H    0.188479
    12  H    0.193106
 Sum of Mulliken charges =  -0.00000

 Dipole moment (field-independent basis, Debye):
    X=             -0.2190    Y=              3.5516    Z=              0.0001  Tot=              3.5583
 Quadrupole moment (field-independent basis, Debye-Ang):
   XX=            -52.5061   YY=            -63.7662   ZZ=            -64.1803
   XY=             -4.0786   XZ=              0.0005   YZ=              0.0003

 Normal termination of Gaussian 16 at Tue Sep 17 10:03:51 2024.
