 Gaussian 16, Revision C.02,

 ----------------------------------------------------------------------
 #p B3LYP/6-31G(d,p) EmpiricalDispersion=GD3BJ opt freq scf(xqc,tight)
 integral(grid=ultrafine)
 ----------------------------------------------------------------------

 ----------------------------------
 opt-freq conformers_unique/conf_ac
 ----------------------------------
 Symbolic Z-matrix:
 Charge =  0 Multiplicity = 1

 SCF Done:  E(RB3LYP) =  -2989.71707857     A.U. after   15 cycles
 SCF Done:  E(RB3LYP) =  -2989.71836857     A.U. after   12 cycles
 SCF Done:  E(RB3LYP) =  -2989.71850324     A.U. after   11 cycles
 SCF Done:  E(RB3LYP) =  -2989.71851640     A.U. after    9 cycles
 SCF Done:  E(RB3LYP) =  -2989.71851657     A.U. after    9 cycles
 SCF Done:  E(RB3LYP) =  -2989.71851772     A.U. after    8 cycles
 Optimization completed.
    -- Stationary point found.
 Normal termination of Gaussian 16 at Tue Sep 17 09:52:31 2024.

 ----------------------------------------------------------------------
 #P Geom=AllCheck Guess=TCheck SCRF=Check GenChk RB3LYP/6-31G(d,p) Freq
 ----------------------------------------------------------------------

 Structure from the checkpoint file:  "smiles_00072_conf_2.chk"
 ----------------------------------
 opt-freq conformers_unique/conf_ac
 ----------------------------------
 Charge =  0 Multiplicity = 1

 SCF Done:  E(RB3LYP) =  -2989.71851772     A.U. after    1 cycles

                      1                      2                      3
                      A                      A                      A
 Frequencies --     79.4798               122.3845               133.0861
 Red. masses --      8.0292                10.4815                 9.1113
 Frc consts  --      0.0299                 0.0925                 0.0951
 IR Inten    --      8.4657                 5.0114                 0.1599

                      4                      5                      6
                      A                      A                      A
 Frequencies --    249.0663               272.7325               333.0593
 Red. masses --      6.8850                 9.1523                 9.4969
 Frc consts  --      0.2516                 0.4011                 0.6207
 IR Inten    --      4.7987                 8.7751                 4.4121

                      7                      8                      9
                      A                      A                      A
 Frequencies --    449.9293               513.1095               540.4743
 Red. masses --      6.2850                 1.1692                 7.9454
 Frc consts  --      0.7496                 0.1814                 1.3675
 IR Inten    --      2.3723               114.9534                 5.2641

                     10                     11                     12
                      A                      A                      A
 Frequencies --    605.3370               634.6586               729.7816
 Red. masses --      4.4819                 6.0127                 8.3565
 Frc consts  --      0.9676                 1.4269                 2.6222
 IR Inten    --      0.0629                 0.0439                10.7227

                     13                     14                     15
                      A                      A                      A
 Frequencies --    734.4204               827.1535               906.6870
 Red. masses --      6.7098                 1.2435                 1.3867
 Frc consts  --      2.1323                 0.5012                 0.6717
 IR Inten    --      9.2640                36.6182                 0.3055

                     16                     17                     18
                      A                      A                      A
 Frequencies --    945.9758               962.8745              1040.8924
 Red. masses --      6.2679                 8.0538                 1.3184
 Frc consts  --      3.3047                 4.3993                 0.8416
 IR Inten    --     13.8524                37.1615                28.8647

                     19                     20                     21
                      A                      A                      A
 Frequencies --   1125.4044              1161.7396              1231.9599
 Red. masses --      3.6447                 4.8668                 1.9645
 Frc consts  --      2.7197                 3.8700                 1.7567
 IR Inten    --     63.0157                 1.6907                15.6196

                     22                     23                     24
                      A                      A                      A
 Frequencies --   1263.6863              1359.2571              1390.7580
 Red. masses --      1.9647                 3.0523                 3.4681
 Frc consts  --      1.8485                 3.3226                 3.9522
 IR Inten    --     15.5766               487.4134                30.0340

                     25                     26                     27
                      A                      A                      A
 Frequencies --   1513.1274              1641.8575              1853.2036
 Red. masses --      8.1753                 6.9644                10.5153
 Frc consts  --     11.0282                11.0613                21.2775
 IR Inten    --    199.6055                55.8649               352.8100

                     28                     29                     30
                      A                      A                      A
 Frequencies --   3284.2107              3295.5482              3768.0861
 Red. masses --      1.0943                 1.1022                 1.0655
 Frc consts  --      6.9540                 7.0526                 8.9137
 IR Inten    --      0.1592                 2.1279                41.0460

 - Thermochemistry -
 -------------------
 Temperature   298.150 Kelvin.  Pressure   1.00000 Atm.
 Atom     1 has atomic number  8 and mass  15.99491

 Molecular mass:   189.92656 amu.
 Principal axes and moments of inertia in atomic units:
                           1         2         3
     Eigenvalues --   531.129963436.214763967.34471
           X            0.99996   0.00936   0.00005
           Y           -0.00936   0.99996  -0.00001
           Z           -0.00005   0.00001   1.00000
 This molecule is an asymmetric top.
 Rotational symmetry number  1.
 Warning -- assumption of classical behavior for rotation
           may cause significant error
 Rotational temperatures (Kelvin)      0.16307     0.02521     0.02183
 Rotational constants (GHZ):           3.39793     0.52521     0.45490
 Zero-point vibrational energy     197204.0 (Joules/Mol)
                                   47.13290 (Kcal/Mol)
 Warning -- explicit consideration of  10 degrees of freedom as
           vibrations may cause significant error
 Vibrational temperatures:    114.35   176.08   191.48   358.35   392.40
          (Kelvin)            479.20   647.35   738.25   777.62   870.94
                              913.13  1049.99  1056.67  1190.09  1304.52
                             1361.05  1385.36  1497.61  1619.21  1671.48
                             1772.52  1818.16  1955.67  2000.99  2177.05
                             2362.27  2666.35  4725.25  4741.56  5421.44

 Zero-point correction=                           0.075111 (Hartree/Particle)
 Thermal correction to Energy=                    0.082919
 Thermal correction to Enthalpy=                  0.083864
 Thermal correction to Gibbs Free Energy=         0.040798
 Sum of electronic and zero-point Energies=          -2989.643407
 Sum of electronic and thermal Energies=             -2989.635598
 Sum of electronic and thermal Enthalpies=           -2989.634654
 Sum of electronic and thermal Free Energies=        -2989.677720

                     E (Thermal)             CV                S
                      KCal/Mol        Cal/Mol-Kelvin    Cal/Mol-Kelvin
 Total                   52.033             27.636             90.639
 Electronic               0.000              0.000              0.000
 Translational            0.889              2.981             41.630
 Rotational               0.889              2.981             30.361
 Vibrational             50.255             21.674             18.649
 Vibration     1          0.600              1.963              3.904
 Vibration     2          0.610              1.930              3.062
 Vibration     3          0.613              1.920              2.901
 Vibration     4          0.662              1.764              1.737
 Vibration     5          0.676              1.724              1.579
 Vibration     6          0.715              1.609              1.245
 Vibration     7          0.809              1.361              0.796
 Vibration     8          0.868              1.221              0.626
 Vibration     9          0.896              1.161              0.564
 Vibration    10          0.964              1.020              0.441

 Optimization completed.
    -- Stationary point found.
 Normal termination of Gaussian 16 at Tue Sep 17 09:53:07 2024.

 ----------------------------------------------------------------------
 #p M062X/def2tzvp geom=check guess=read scf(xqc,tight) integral(grid=u
 ltrafine) scrf(SMD, solvent=1,4-Dioxane) polar prop=efg volume
 ----------------------------------------------------------------------

 ---
 spe
 ---
 Structure from the checkpoint file:  "smiles_00072_conf_2.chk"
 Charge =  0 Multiplicity = 1

 SCF Done:  E(RM062X) =  -2992.20652579     A.U. after   13 cycles

  Exact polarizability:     142.029      -5.334      96.011      -0.004       0.001      54.334
 Approx polarizability:     145.121      -8.584     114.741      -0.004       0.001      67.462

 Normal termination of Gaussian 16 at Tue Sep 17 10:00:10 2024.
 Gaussian 16:  ES64L-G16RevC.02  7-Dec-2021

 ----------------------------------------------------------------------
 #p M062X/def2tzvp geom=check guess=read scf(xqc,tight) integral(grid=u
 ltrafine) scrf(SMD, solvent=1,4-Dioxane) nmr=giao
 ----------------------------------------------------------------------

 ---
 spe
 ---
 Structure from the checkpoint file:  "smiles_00072_conf_2.chk"
 Charge =  0 Multiplicity = 1

                         Standard orientation:
 ---------------------------------------------------------------------
 Center     Atomic      Atomic             Coordinates (Angstroms)
 Number     Number       Type             X           Y           Z
 ---------------------------------------------------------------------
      1          8           0       -3.828882    0.272793    0.000191
      2          6           0       -2.784005   -0.334661    0.000135
      3          8           0       -2.740563   -1.688008    0.000141
      4          6           0       -1.481476    0.345552    0.000072
      5          6           0       -1.138009    1.667203    0.000022
      6          6           0        0.287914    1.724210    0.000086
      7          6           0        0.709364    0.425410   -0.000042
      8         35           0        2.412470   -0.322045   -0.000128
      9          8           0       -0.338748   -0.433881   -0.000012
     10          1           0       -1.818720   -1.990685    0.000100
     11          1           0       -1.835334    2.490975    0.000037
     12          1           0        0.920396    2.597788    0.000136
 ---------------------------------------------------------------------

 SCF Done:  E(RM062X) =  -2992.20652579     A.U. after    1 cycles

      1  O    Isotropic =  -124.7229   Anisotropy =   647.6487

      2  C    Isotropic =    13.6849   Anisotropy =    95.5197

      3  O    Isotropic =   127.9266   Anisotropy =   154.9524

      4  C    Isotropic =    17.8073   Anisotropy =   104.4448

      5  C    Isotropic =    43.7094   Anisotropy =   181.9879

      6  C    Isotropic =    50.1403   Anisotropy =   143.3128

      7  C    Isotropic =    19.5174   Anisotropy =    72.3873

      8  Br   Isotropic =  2101.4584   Anisotropy =  1211.2462

      9  O    Isotropic =    -6.6495   Anisotropy =   268.0516

     10  H    Isotropic =    23.9934   Anisotropy =     7.8827

     11  H    Isotropic =    23.7338   Anisotropy =     3.8691

     12  H    Isotropic =    24.6079   Anisotropy =     6.4563

 The electronic state is 1-A.
 Alpha  occ. eigenvalues -- -485.40889 -63.39366 -57.21324 -57.21065 -57.21061
 Alpha  occ. eigenvalues --  -19.73800 -19.68306 -19.62576 -10.69677 -10.67491
 Alpha  occ. eigenvalues --  -10.62806 -10.57809 -10.57350  -9.06035  -6.88500
 Alpha  occ. eigenvalues --   -6.87529  -6.87516  -2.91883  -2.91522  -2.91502
 Alpha  occ. eigenvalues --   -2.90601  -2.90601  -1.28187  -1.23715  -1.15412
 Alpha  occ. eigenvalues --   -0.94925  -0.93586  -0.85800  -0.74203  -0.71431
 Alpha  occ. eigenvalues --   -0.68539  -0.66706  -0.58978  -0.56269  -0.54969
 Alpha  occ. eigenvalues --   -0.53574  -0.52172  -0.50289  -0.48378  -0.47217
 Alpha  occ. eigenvalues --   -0.41397  -0.40897  -0.38615  -0.37638  -0.37463
 Alpha  occ. eigenvalues --   -0.30418
 Alpha virt. eigenvalues --   -0.03109   0.02542   0.04836   0.06546   0.10107
 Alpha virt. eigenvalues --    0.11595   0.13065   0.13147   0.15525   0.15927
 Alpha virt. eigenvalues --    0.17874   0.18544   0.21028   0.21925   0.24706

 Mulliken charges:
               1
     1  O   -0.332409
     2  C    0.333271
     3  O   -0.386587
     4  C    0.174664
     5  C   -0.214998
     6  C   -0.119987
     7  C    0.087311
     8  Br  -0.013472
     9  O   -0.273806
    10  H    0.354923
    11  H    0.194745
    12  H    0.196345
 Sum of Mulliken charges =  -0.00000

 Dipole moment (field-independent basis, Debye):
    X=              4.6130    Y=              1.1726    Z=             -0.0002  Tot=              4.7597
 Quadrupole moment (field-independent basis, Debye-Ang):
   XX=            -83.3519   YY=            -55.5590   ZZ=            -64.1001
   XY=             -1.1161   XZ=              0.0012   YZ=              0.0002

 Normal termination of Gaussian 16 at Tue Sep 17 10:03:57 2024.
