 Gaussian 16, Revision C.02,

 ----------------------------------------------------------------------
 #p B3LYP/gen pseudo=read EmpiricalDispersion=GD3BJ opt freq scf(xqc,ti
 ght) integral(grid=ultrafine)
 ----------------------------------------------------------------------

 ----------------------------------
 opt-freq conformers_unique/conf_ac
 ----------------------------------
 Symbolic Z-matrix:
 Charge =  0 Multiplicity = 1

 SCF Done:  E(RB3LYP) =  -357.578206646     A.U. after   14 cycles
 SCF Done:  E(RB3LYP) =  -357.579241288     A.U. after   12 cycles
 SCF Done:  E(RB3LYP) =  -357.579281874     A.U. after    9 cycles
 SCF Done:  E(RB3LYP) =  -357.579285322     A.U. after    8 cycles
 SCF Done:  E(RB3LYP) =  -357.579286401     A.U. after    8 cycles
 SCF Done:  E(RB3LYP) =  -357.579287445     A.U. after    8 cycles
 SCF Done:  E(RB3LYP) =  -357.579291687     A.U. after   11 cycles
 SCF Done:  E(RB3LYP) =  -357.579297745     A.U. after   14 cycles
 SCF Done:  E(RB3LYP) =  -357.579311245     A.U. after   12 cycles
 SCF Done:  E(RB3LYP) =  -357.576498464     A.U. after   15 cycles
 SCF Done:  E(RB3LYP) =  -357.583685775     A.U. after   13 cycles
 SCF Done:  E(RB3LYP) =  -357.584516064     A.U. after   10 cycles
 SCF Done:  E(RB3LYP) =  -357.584445540     A.U. after   12 cycles
 SCF Done:  E(RB3LYP) =  -357.584454064     A.U. after   12 cycles
 SCF Done:  E(RB3LYP) =  -357.584657786     A.U. after    9 cycles
 SCF Done:  E(RB3LYP) =  -357.584736027     A.U. after   11 cycles
 SCF Done:  E(RB3LYP) =  -357.584736772     A.U. after    8 cycles
 Optimization completed.
    -- Stationary point found.
 Normal termination of Gaussian 16 at Tue Sep 17 09:46:34 2024.

 ------------------------------------------------------------------
 #P Geom=AllCheck Guess=TCheck SCRF=Check GenChk RB3LYP/ChkBas Freq
 ------------------------------------------------------------------

 Structure from the checkpoint file:  "smiles_00088_conf_2.chk"
 ----------------------------------
 opt-freq conformers_unique/conf_ac
 ----------------------------------
 Charge =  0 Multiplicity = 1

 SCF Done:  E(RB3LYP) =  -357.584736772     A.U. after    1 cycles

                      1                      2                      3
                      A                      A                      A
 Frequencies --     93.8746               136.2801               144.3262
 Red. masses --      3.1910                 5.1345                 4.1655
 Frc consts  --      0.0166                 0.0562                 0.0511
 IR Inten    --      4.7926                 0.6696                 0.1965

                      4                      5                      6
                      A                      A                      A
 Frequencies --    218.9895               251.9551               282.0399
 Red. masses --      2.0331                 9.5451                 1.5489
 Frc consts  --      0.0574                 0.3570                 0.0726
 IR Inten    --      0.9645                 1.1591                 0.3197

                      7                      8                      9
                      A                      A                      A
 Frequencies --    308.8179               447.9893               458.4706
 Red. masses --      3.6194                 3.2145                 4.7791
 Frc consts  --      0.2034                 0.3801                 0.5919
 IR Inten    --      3.2600                 2.5839                 0.1549

                     10                     11                     12
                      A                      A                      A
 Frequencies --    562.8776               565.1843               660.3708
 Red. masses --      4.9781                 5.0317                 7.2069
 Frc consts  --      0.9293                 0.9470                 1.8517
 IR Inten    --      4.1745                 0.7841                12.3357

                     13                     14                     15
                      A                      A                      A
 Frequencies --    693.3636               786.6469               836.3063
 Red. masses --      2.4823                 1.3443                 6.4538
 Frc consts  --      0.7031                 0.4901                 2.6595
 IR Inten    --      8.6870                34.9344                88.1109

                     16                     17                     18
                      A                      A                      A
 Frequencies --    858.7982               895.2688               977.4824
 Red. masses --      1.4403                 1.4076                 1.2764
 Frc consts  --      0.6259                 0.6647                 0.7186
 IR Inten    --     18.4747                 2.4314                 0.5206

                     19                     20                     21
                      A                      A                      A
 Frequencies --   1008.2528              1071.4447              1094.4459
 Red. masses --      5.3424                 5.8080                 2.1320
 Frc consts  --      3.1998                 3.9284                 1.5046
 IR Inten    --     21.2240                35.8749                24.0019

                     22                     23                     24
                      A                      A                      A
 Frequencies --   1123.9929              1179.6428              1191.1738
 Red. masses --      1.5302                 1.2742                 1.1311
 Frc consts  --      1.1390                 1.0447                 0.9456
 IR Inten    --      2.7519                 0.7106                 8.2098

                     25                     26                     27
                      A                      A                      A
 Frequencies --   1214.6631              1294.1710              1320.8865
 Red. masses --      1.3791                 2.9887                 1.8006
 Frc consts  --      1.1988                 2.9492                 1.8510
 IR Inten    --      4.4120               169.7323                 5.2719

                     28                     29                     30
                      A                      A                      A
 Frequencies --   1365.8194              1459.7762              1489.4569
 Red. masses --      3.5500                 2.4034                 1.3376
 Frc consts  --      3.9018                 3.0175                 1.7484
 IR Inten    --     52.1858                21.1837                37.9339

                     31                     32                     33
                      A                      A                      A
 Frequencies --   1505.0240              1517.8679              1531.7466
 Red. masses --      1.0457                 1.1354                 2.0088
 Frc consts  --      1.3955                 1.5413                 2.7769
 IR Inten    --      5.9253                66.0241                54.2409

                     34                     35                     36
                      A                      A                      A
 Frequencies --   1619.4703              1654.9104              3020.9608
 Red. masses --      6.4150                 6.1038                 1.0348
 Frc consts  --      9.9128                 9.8492                 5.5639
 IR Inten    --     95.9035               115.1357                45.1195

                     37                     38                     39
                      A                      A                      A
 Frequencies --   3083.7243              3156.7130              3194.9072
 Red. masses --      1.1063                 1.1003                 1.0881
 Frc consts  --      6.1984                 6.4598                 6.5437
 IR Inten    --     38.1917                23.3075                 9.1328

                     40                     41                     42
                      A                      A                      A
 Frequencies --   3221.9878              3231.7918              3249.4201
 Red. masses --      1.0931                 1.0945                 1.0906
 Frc consts  --      6.6859                 6.7350                 6.7848
 IR Inten    --      4.4311                 4.0014                 3.2993

 - Thermochemistry -
 -------------------
 Temperature   298.150 Kelvin.  Pressure   1.00000 Atm.
 Atom     1 has atomic number  6 and mass  12.00000

 Molecular mass:   233.95009 amu.
 Principal axes and moments of inertia in atomic units:
                           1         2         3
     Eigenvalues --   903.178083809.530044701.20316
           X            0.99948  -0.03236   0.00000
           Y            0.03236   0.99948   0.00001
           Z           -0.00000  -0.00001   1.00000
 This molecule is an asymmetric top.
 Rotational symmetry number  1.
 Warning -- assumption of classical behavior for rotation
           may cause significant error
 Rotational temperatures (Kelvin)      0.09590     0.02274     0.01842
 Rotational constants (GHZ):           1.99821     0.47374     0.38389
 Zero-point vibrational energy     322879.8 (Joules/Mol)
                                   77.17013 (Kcal/Mol)
 Warning -- explicit consideration of  11 degrees of freedom as
           vibrations may cause significant error
 Vibrational temperatures:    135.06   196.08   207.65   315.08   362.51
          (Kelvin)            405.79   444.32   644.56   659.64   809.86
                              813.17   950.13   997.60  1131.81  1203.26
                             1235.62  1288.09  1406.38  1450.65  1541.57
                             1574.66  1617.18  1697.24  1713.83  1747.63
                             1862.02  1900.46  1965.11  2100.29  2143.00
                             2165.39  2183.87  2203.84  2330.06  2381.05
                             4346.49  4436.79  4541.81  4596.76  4635.72
                             4649.83  4675.19

 Zero-point correction=                           0.122978 (Hartree/Particle)
 Thermal correction to Energy=                    0.131407
 Thermal correction to Enthalpy=                  0.132352
 Thermal correction to Gibbs Free Energy=         0.087784
 Sum of electronic and zero-point Energies=           -357.461758
 Sum of electronic and thermal Energies=              -357.453329
 Sum of electronic and thermal Enthalpies=            -357.452385
 Sum of electronic and thermal Free Energies=         -357.496952

                     E (Thermal)             CV                S
                      KCal/Mol        Cal/Mol-Kelvin    Cal/Mol-Kelvin
 Total                   82.459             30.804             93.799
 Electronic               0.000              0.000              0.000
 Translational            0.889              2.981             42.252
 Rotational               0.889              2.981             31.159
 Vibrational             80.682             24.842             20.389
 Vibration     1          0.603              1.954              3.578
 Vibration     2          0.614              1.917              2.855
 Vibration     3          0.616              1.909              2.746
 Vibration     4          0.647              1.812              1.967
 Vibration     5          0.664              1.759              1.717
 Vibration     6          0.681              1.707              1.521
 Vibration     7          0.698              1.657              1.369
 Vibration     8          0.807              1.365              0.802
 Vibration     9          0.816              1.342              0.771
 Vibration    10          0.919              1.112              0.518
 Vibration    11          0.921              1.107              0.514

                           ! Non-Optimized Parameters !
 Normal termination of Gaussian 16 at Tue Sep 17 09:47:11 2024.

 ----------------------------------------------------------------------
 #p M062X/def2tzvp geom=check guess=read scf(xqc,tight) integral(grid=u
 ltrafine) scrf(SMD, solvent=1,4-Dioxane) polar prop=efg volume
 ----------------------------------------------------------------------

 ---
 spe
 ---
 Structure from the checkpoint file:  "smiles_00088_conf_2.chk"
 Charge =  0 Multiplicity = 1

 SCF Done:  E(RM062X) =  -643.785155398     A.U. after   20 cycles

  Exact polarizability:     180.556       5.887     144.470      -0.002       0.005      78.671
 Approx polarizability:     187.908       6.462     161.339      -0.004       0.006      98.679

 1\1\GINC-HPC-21-28\SP\RM062X\def2TZVP\C7H7I1O1\MANTIND\17-Sep-2024\0\\
 #p M062X/def2tzvp geom=check guess=read scf(xqc,tight) integral(grid=u
 ltrafine) scrf(SMD, solvent=1,4-Dioxane) polar prop=efg volume\\spe\\0
 ,1\C,0,-3.7624575605,2.0563186728,0.4385836723\O,0,-3.8826198174,0.657
 4883883,0.2312133736\C,0,-2.7417335945,-0.0839760614,0.1817203754\C,0,
 -2.9144330263,-1.4601865466,-0.0246445808\C,0,-1.8054156167,-2.2923621
 594,-0.0883456448\C,0,-0.5086958816,-1.7827484157,0.0500643725\C,0,-0.
 3629697715,-0.4163430219,0.2536031281\I,0,1.6076879637,0.4056214087,0.

 Normal termination of Gaussian 16 at Tue Sep 17 10:14:52 2024.
 Gaussian 16:  ES64L-G16RevC.02  7-Dec-2021

 ----------------------------------------------------------------------
 #p M062X/def2tzvp geom=check guess=read scf(xqc,tight) integral(grid=u
 ltrafine) scrf(SMD, solvent=1,4-Dioxane) nmr=giao
 ----------------------------------------------------------------------

 ---
 spe
 ---
 Structure from the checkpoint file:  "smiles_00088_conf_2.chk"
 Charge =  0 Multiplicity = 1

                         Standard orientation:
 ---------------------------------------------------------------------
 Center     Atomic      Atomic             Coordinates (Angstroms)
 Number     Number       Type             X           Y           Z
 ---------------------------------------------------------------------
      1          6           0        3.289377   -2.099190    0.000253
      2          8           0        3.455317   -0.689711    0.000038
      3          6           0        2.337563    0.087763   -0.000224
      4          6           0        2.555329    1.473023   -0.000049
      5          6           0        1.472411    2.341229    0.000120
      6          6           0        0.157836    1.859319    0.000054
      7          6           0       -0.032609    0.483289   -0.000180
      8         53           0       -2.031969   -0.297081    0.000031
      9          6           0        1.031732   -0.418943   -0.000343
     10          1           0        2.752169   -2.441316    0.893788
     11          1           0        4.295146   -2.520607    0.001234
     12          1           0        2.753866   -2.441608   -0.894140
     13          1           0        3.576831    1.836446    0.000102
     14          1           0        1.645373    3.413202    0.000211
     15          1           0       -0.683507    2.540885    0.000382
     16          1           0        0.842084   -1.482979   -0.001300
 ---------------------------------------------------------------------

 SCF Done:  E(RM062X) =  -643.785155398     A.U. after    1 cycles

      1  C    Isotropic =   129.6534   Anisotropy =    73.4819

      2  O    Isotropic =   221.7506   Anisotropy =    92.1387

      3  C    Isotropic =     1.9534   Anisotropy =   165.0816

      4  C    Isotropic =    47.2640   Anisotropy =   178.2273

      5  C    Isotropic =    32.7534   Anisotropy =   213.4282

      6  C    Isotropic =    36.4781   Anisotropy =   172.1756

      7  C    Isotropic =    26.6813   Anisotropy =   137.7760

      8  I    Isotropic =   434.3757   Anisotropy =    73.8288

      9  C    Isotropic =    49.4972   Anisotropy =   155.5081

     10  H    Isotropic =    28.2613   Anisotropy =     7.4105

     11  H    Isotropic =    27.8008   Anisotropy =     8.3884

     12  H    Isotropic =    28.2626   Anisotropy =     7.4170

     13  H    Isotropic =    24.1806   Anisotropy =     6.5132

     14  H    Isotropic =    23.8354   Anisotropy =     5.6980

     15  H    Isotropic =    24.0068   Anisotropy =    11.6233

     16  H    Isotropic =    24.2384   Anisotropy =    15.1731

 The electronic state is 1-A.
 Alpha  occ. eigenvalues --  -19.66304 -10.61532 -10.60028 -10.58958 -10.55473
 Alpha  occ. eigenvalues --  -10.55441 -10.54957 -10.54577  -7.10316  -5.09650
 Alpha  occ. eigenvalues --   -5.08620  -5.08619  -2.06479  -2.06051  -2.06048
 Alpha  occ. eigenvalues --   -2.05195  -2.05194  -1.19694  -0.97080  -0.87010
 Alpha  occ. eigenvalues --   -0.85520  -0.79892  -0.77224  -0.69173  -0.67676
 Alpha  occ. eigenvalues --   -0.60790  -0.56757  -0.56268  -0.55290  -0.51541
 Alpha  occ. eigenvalues --   -0.48874  -0.46993  -0.46171  -0.43340  -0.42870
 Alpha  occ. eigenvalues --   -0.40664  -0.38146  -0.34712  -0.32130  -0.30286
 Alpha  occ. eigenvalues --   -0.28214
 Alpha virt. eigenvalues --   -0.00488   0.00732   0.02375   0.07951   0.09821
 Alpha virt. eigenvalues --    0.11000   0.12183   0.13319   0.13905   0.15132
 Alpha virt. eigenvalues --    0.15645   0.16448   0.17320   0.18165   0.19037

 Mulliken charges:
               1
     1  C   -0.311332
     2  O   -0.283306
     3  C    0.312120
     4  C   -0.241988
     5  C   -0.113377
     6  C   -0.247708
     7  C    0.089686
     8  I   -0.111177
     9  C   -0.302812
    10  H    0.161884
    11  H    0.165756
    12  H    0.161894
    13  H    0.170165
    14  H    0.166553
    15  H    0.183441
    16  H    0.200201
 Sum of Mulliken charges =  -0.00000

 Dipole moment (field-independent basis, Debye):
    X=              1.5892    Y=             -0.7184    Z=              0.0000  Tot=              1.7441
 Quadrupole moment (field-independent basis, Debye-Ang):
   XX=            -71.9144   YY=            -62.9900   ZZ=            -77.9605
   XY=             -3.5300   XZ=              0.0001   YZ=              0.0021

 1\1\GINC-HPC-21-28\SP\RM062X\def2TZVP\C7H7I1O1\MANTIND\17-Sep-2024\0\\
 #p M062X/def2tzvp geom=check guess=read scf(xqc,tight) integral(grid=u
 ltrafine) scrf(SMD, solvent=1,4-Dioxane) nmr=giao\\spe\\0,1\C,0,-3.762
 4575605,2.0563186728,0.4385836723\O,0,-3.8826198174,0.6574883883,0.231
 2133736\C,0,-2.7417335945,-0.0839760614,0.1817203754\C,0,-2.9144330263
 ,-1.4601865466,-0.0246445808\C,0,-1.8054156167,-2.2923621594,-0.088345
 6448\C,0,-0.5086958816,-1.7827484157,0.0500643725\C,0,-0.3629697715,-0
 .4163430219,0.2536031281\I,0,1.6076879637,0.4056214087,0.4710901248\C,

 Normal termination of Gaussian 16 at Tue Sep 17 10:22:26 2024.
