 Gaussian 16, Revision C.02,

 ----------------------------------------------------------------------
 #p B3LYP/gen pseudo=read EmpiricalDispersion=GD3BJ opt freq scf(xqc,ti
 ght) integral(grid=ultrafine)
 ----------------------------------------------------------------------

 ----------------------------------
 opt-freq conformers_unique/conf_aa
 ----------------------------------
 Symbolic Z-matrix:
 Charge =  0 Multiplicity = 1

 SCF Done:  E(RB3LYP) =  -357.583657398     A.U. after   14 cycles
 SCF Done:  E(RB3LYP) =  -357.584688598     A.U. after   12 cycles
 SCF Done:  E(RB3LYP) =  -357.584732706     A.U. after   11 cycles
 SCF Done:  E(RB3LYP) =  -357.584736240     A.U. after    8 cycles
 SCF Done:  E(RB3LYP) =  -357.584736808     A.U. after    8 cycles
 Optimization completed.
    -- Stationary point found.
 Normal termination of Gaussian 16 at Tue Sep 17 09:43:47 2024.

 ------------------------------------------------------------------
 #P Geom=AllCheck Guess=TCheck SCRF=Check GenChk RB3LYP/ChkBas Freq
 ------------------------------------------------------------------

 Structure from the checkpoint file:  "smiles_00088_conf_0.chk"
 ----------------------------------
 opt-freq conformers_unique/conf_aa
 ----------------------------------
 Charge =  0 Multiplicity = 1

 SCF Done:  E(RB3LYP) =  -357.584736808     A.U. after    1 cycles

                      1                      2                      3
                      A                      A                      A
 Frequencies --     93.8178               136.2564               144.2638
 Red. masses --      3.1913                 5.1337                 4.1674
 Frc consts  --      0.0165                 0.0562                 0.0511
 IR Inten    --      4.7934                 0.6702                 0.1978

                      4                      5                      6
                      A                      A                      A
 Frequencies --    218.9251               251.9242               281.9519
 Red. masses --      2.0347                 9.5450                 1.5476
 Frc consts  --      0.0575                 0.3569                 0.0725
 IR Inten    --      0.9643                 1.1607                 0.3188

                      7                      8                      9
                      A                      A                      A
 Frequencies --    308.7200               447.9434               458.4614
 Red. masses --      3.6197                 3.2146                 4.7786
 Frc consts  --      0.2033                 0.3800                 0.5918
 IR Inten    --      3.2597                 2.5832                 0.1553

                     10                     11                     12
                      A                      A                      A
 Frequencies --    562.8695               565.1312               660.3580
 Red. masses --      4.9788                 5.0301                 7.2067
 Frc consts  --      0.9294                 0.9465                 1.8516
 IR Inten    --      4.1687                 0.7832                12.3457

                     13                     14                     15
                      A                      A                      A
 Frequencies --    693.3080               786.5445               836.3307
 Red. masses --      2.4808                 1.3446                 6.4537
 Frc consts  --      0.7026                 0.4901                 2.6596
 IR Inten    --      8.7036                34.9245                88.1200

                     16                     17                     18
                      A                      A                      A
 Frequencies --    858.7607               895.1144               977.4546
 Red. masses --      1.4403                 1.4080                 1.2764
 Frc consts  --      0.6258                 0.6647                 0.7185
 IR Inten    --     18.4679                 2.4397                 0.5152

                     19                     20                     21
                      A                      A                      A
 Frequencies --   1008.2897              1071.4931              1094.4841
 Red. masses --      5.3413                 5.8084                 2.1309
 Frc consts  --      3.1994                 3.9290                 1.5039
 IR Inten    --     21.2243                35.8779                23.9816

                     22                     23                     24
                      A                      A                      A
 Frequencies --   1123.9721              1179.6576              1191.1853
 Red. masses --      1.5300                 1.2742                 1.1309
 Frc consts  --      1.1388                 1.0447                 0.9455
 IR Inten    --      2.7522                 0.7101                 8.1975

                     25                     26                     27
                      A                      A                      A
 Frequencies --   1214.6758              1294.3312              1320.9285
 Red. masses --      1.3790                 2.9795                 1.8013
 Frc consts  --      1.1988                 2.9409                 1.8518
 IR Inten    --      4.4048               169.5758                 5.4387

                     28                     29                     30
                      A                      A                      A
 Frequencies --   1365.8980              1459.8142              1489.4949
 Red. masses --      3.5605                 2.4031                 1.3381
 Frc consts  --      3.9138                 3.0173                 1.7490
 IR Inten    --     52.1902                21.2700                37.9012

                     31                     32                     33
                      A                      A                      A
 Frequencies --   1504.9845              1517.9214              1531.8166
 Red. masses --      1.0457                 1.1351                 2.0106
 Frc consts  --      1.3954                 1.5410                 2.7796
 IR Inten    --      5.9239                66.0232                54.4555

                     34                     35                     36
                      A                      A                      A
 Frequencies --   1619.5898              1654.9971              3020.7609
 Red. masses --      6.4172                 6.1063                 1.0348
 Frc consts  --      9.9176                 9.8543                 5.5633
 IR Inten    --     95.7871               115.3004                45.1266

                     37                     38                     39
                      A                      A                      A
 Frequencies --   3083.4271              3156.8453              3194.8836
 Red. masses --      1.1063                 1.1002                 1.0881
 Frc consts  --      6.1972                 6.4601                 6.5438
 IR Inten    --     38.2157                23.3142                 9.1985

                     40                     41                     42
                      A                      A                      A
 Frequencies --   3222.4374              3232.0699              3249.4826
 Red. masses --      1.0931                 1.0945                 1.0906
 Frc consts  --      6.6876                 6.7361                 6.7851
 IR Inten    --      4.3969                 3.9770                 3.2995

 - Thermochemistry -
 -------------------
 Temperature   298.150 Kelvin.  Pressure   1.00000 Atm.
 Atom     1 has atomic number  6 and mass  12.00000

 Molecular mass:   233.95009 amu.
 Principal axes and moments of inertia in atomic units:
                           1         2         3
     Eigenvalues --   903.166033809.662594701.32427
           X            0.99948   0.03236   0.00003
           Y           -0.03236   0.99948   0.00001
           Z           -0.00003  -0.00001   1.00000
 This molecule is an asymmetric top.
 Rotational symmetry number  1.
 Warning -- assumption of classical behavior for rotation
           may cause significant error
 Rotational temperatures (Kelvin)      0.09590     0.02274     0.01842
 Rotational constants (GHZ):           1.99824     0.47373     0.38388
 Zero-point vibrational energy     322881.5 (Joules/Mol)
                                   77.17054 (Kcal/Mol)
 Warning -- explicit consideration of  11 degrees of freedom as
           vibrations may cause significant error
 Vibrational temperatures:    134.98   196.04   207.56   314.98   362.46
          (Kelvin)            405.67   444.18   644.49   659.62   809.84
                              813.10   950.11   997.52  1131.66  1203.29
                             1235.57  1287.87  1406.34  1450.70  1541.64
                             1574.72  1617.15  1697.26  1713.85  1747.65
                             1862.25  1900.52  1965.22  2100.35  2143.05
                             2165.34  2183.95  2203.94  2330.23  2381.17
                             4346.20  4436.36  4542.00  4596.72  4636.37
                             4650.23  4675.28

 Zero-point correction=                           0.122979 (Hartree/Particle)
 Thermal correction to Energy=                    0.131409
 Thermal correction to Enthalpy=                  0.132353
 Thermal correction to Gibbs Free Energy=         0.087784
 Sum of electronic and zero-point Energies=           -357.461758
 Sum of electronic and thermal Energies=              -357.453328
 Sum of electronic and thermal Enthalpies=            -357.452384
 Sum of electronic and thermal Free Energies=         -357.496953

                     E (Thermal)             CV                S
                      KCal/Mol        Cal/Mol-Kelvin    Cal/Mol-Kelvin
 Total                   82.460             30.805             93.804
 Electronic               0.000              0.000              0.000
 Translational            0.889              2.981             42.252
 Rotational               0.889              2.981             31.159
 Vibrational             80.683             24.843             20.393
 Vibration     1          0.603              1.954              3.579
 Vibration     2          0.614              1.917              2.856
 Vibration     3          0.616              1.909              2.747
 Vibration     4          0.647              1.812              1.968
 Vibration     5          0.664              1.760              1.717
 Vibration     6          0.681              1.707              1.522
 Vibration     7          0.698              1.657              1.369
 Vibration     8          0.807              1.365              0.802
 Vibration     9          0.816              1.342              0.771
 Vibration    10          0.919              1.112              0.518
 Vibration    11          0.921              1.107              0.514

 Optimization completed.
    -- Stationary point found.
 Normal termination of Gaussian 16 at Tue Sep 17 09:44:25 2024.

 ----------------------------------------------------------------------
 #p M062X/def2tzvp geom=check guess=read scf(xqc,tight) integral(grid=u
 ltrafine) scrf(SMD, solvent=1,4-Dioxane) polar prop=efg volume
 ----------------------------------------------------------------------

 ---
 spe
 ---
 Structure from the checkpoint file:  "smiles_00088_conf_0.chk"
 Charge =  0 Multiplicity = 1

 SCF Done:  E(RM062X) =  -643.785156175     A.U. after   20 cycles

  Exact polarizability:     180.556      -5.887     144.467      -0.003       0.001      78.671
 Approx polarizability:     187.905      -6.462     161.334      -0.002       0.001      98.678

 1\1\GINC-HPC-21-28\SP\RM062X\def2TZVP\C7H7I1O1\MANTIND\17-Sep-2024\0\\
 #p M062X/def2tzvp geom=check guess=read scf(xqc,tight) integral(grid=u
 ltrafine) scrf(SMD, solvent=1,4-Dioxane) polar prop=efg volume\\spe\\0
 ,1\C,0,-3.4717127614,2.1746333073,-0.0002067297\O,0,-3.6720066471,0.76
 96500745,0.0000367217\C,0,-2.5738572406,-0.0351635585,0.0000198048\C,0
 ,-2.8257694162,-1.4145627145,-0.0000221257\C,0,-1.7645925244,-2.309202
 3181,-0.0000246189\C,0,-0.4385741543,-1.8599541123,0.0000095275\C,0,-0
 .2141914942,-0.4890395322,0.0000534604\I,0,1.8038651729,0.2418057666,0

 Normal termination of Gaussian 16 at Tue Sep 17 10:12:31 2024.
 Gaussian 16:  ES64L-G16RevC.02  7-Dec-2021

 ----------------------------------------------------------------------
 #p M062X/def2tzvp geom=check guess=read scf(xqc,tight) integral(grid=u
 ltrafine) scrf(SMD, solvent=1,4-Dioxane) nmr=giao
 ----------------------------------------------------------------------

 ---
 spe
 ---
 Structure from the checkpoint file:  "smiles_00088_conf_0.chk"
 Charge =  0 Multiplicity = 1

                         Standard orientation:
 ---------------------------------------------------------------------
 Center     Atomic      Atomic             Coordinates (Angstroms)
 Number     Number       Type             X           Y           Z
 ---------------------------------------------------------------------
      1          6           0       -3.289651   -2.099173    0.000251
      2          8           0       -3.455218   -0.689675    0.000008
      3          6           0       -2.337546    0.087799    0.000025
      4          6           0       -2.555348    1.472993    0.000066
      5          6           0       -1.472421    2.341178    0.000069
      6          6           0       -0.157890    1.859350    0.000035
      7          6           0        0.032600    0.483317   -0.000009
      8         53           0        2.032010   -0.297097   -0.000070
      9          6           0       -1.031710   -0.418880   -0.000018
     10          1           0       -2.753217   -2.441448    0.894204
     11          1           0       -2.753393   -2.441782   -0.893681
     12          1           0       -4.295500   -2.520353    0.000423
     13          1           0       -3.576774    1.836473    0.000098
     14          1           0       -1.645383    3.413159    0.000106
     15          1           0        0.683401    2.540929    0.000043
     16          1           0       -0.842116   -1.482919   -0.000068
 ---------------------------------------------------------------------

 SCF Done:  E(RM062X) =  -643.785156175     A.U. after    1 cycles

      1  C    Isotropic =   129.6586   Anisotropy =    73.4858

      2  O    Isotropic =   221.7739   Anisotropy =    92.1250

      3  C    Isotropic =     1.9695   Anisotropy =   165.0755

      4  C    Isotropic =    47.2802   Anisotropy =   178.2185

      5  C    Isotropic =    32.7605   Anisotropy =   213.4249

      6  C    Isotropic =    36.4897   Anisotropy =   172.1687

      7  C    Isotropic =    26.6781   Anisotropy =   137.7612

      8  I    Isotropic =   434.3746   Anisotropy =    73.8319

      9  C    Isotropic =    49.5041   Anisotropy =   155.5046

     10  H    Isotropic =    28.2616   Anisotropy =     7.4143

     11  H    Isotropic =    28.2613   Anisotropy =     7.4149

     12  H    Isotropic =    27.8008   Anisotropy =     8.3889

     13  H    Isotropic =    24.1819   Anisotropy =     6.5131

     14  H    Isotropic =    23.8358   Anisotropy =     5.6978

     15  H    Isotropic =    24.0078   Anisotropy =    11.6226

     16  H    Isotropic =    24.2391   Anisotropy =    15.1721

 The electronic state is 1-A.
 Alpha  occ. eigenvalues --  -19.66303 -10.61531 -10.60028 -10.58959 -10.55472
 Alpha  occ. eigenvalues --  -10.55440 -10.54955 -10.54575  -7.10315  -5.09650
 Alpha  occ. eigenvalues --   -5.08620  -5.08619  -2.06479  -2.06051  -2.06048
 Alpha  occ. eigenvalues --   -2.05194  -2.05193  -1.19696  -0.97082  -0.87011
 Alpha  occ. eigenvalues --   -0.85521  -0.79892  -0.77225  -0.69173  -0.67676
 Alpha  occ. eigenvalues --   -0.60791  -0.56759  -0.56269  -0.55290  -0.51540
 Alpha  occ. eigenvalues --   -0.48875  -0.46994  -0.46171  -0.43340  -0.42870
 Alpha  occ. eigenvalues --   -0.40664  -0.38145  -0.34712  -0.32130  -0.30286
 Alpha  occ. eigenvalues --   -0.28214
 Alpha virt. eigenvalues --   -0.00489   0.00733   0.02376   0.07951   0.09822
 Alpha virt. eigenvalues --    0.11001   0.12183   0.13319   0.13905   0.15132
 Alpha virt. eigenvalues --    0.15645   0.16448   0.17321   0.18165   0.19037

 Mulliken charges:
               1
     1  C   -0.311345
     2  O   -0.283290
     3  C    0.312139
     4  C   -0.242017
     5  C   -0.113333
     6  C   -0.247728
     7  C    0.089695
     8  I   -0.111199
     9  C   -0.302791
    10  H    0.161890
    11  H    0.161887
    12  H    0.165760
    13  H    0.170158
    14  H    0.166545
    15  H    0.183434
    16  H    0.200194
 Sum of Mulliken charges =  -0.00000

 Dipole moment (field-independent basis, Debye):
    X=             -1.5901    Y=             -0.7187    Z=              0.0004  Tot=              1.7449
 Quadrupole moment (field-independent basis, Debye-Ang):
   XX=            -71.9104   YY=            -62.9904   ZZ=            -77.9603
   XY=              3.5312   XZ=             -0.0013   YZ=             -0.0003

 1\1\GINC-HPC-21-28\SP\RM062X\def2TZVP\C7H7I1O1\MANTIND\17-Sep-2024\0\\
 #p M062X/def2tzvp geom=check guess=read scf(xqc,tight) integral(grid=u
 ltrafine) scrf(SMD, solvent=1,4-Dioxane) nmr=giao\\spe\\0,1\C,0,-3.471
 7127614,2.1746333073,-0.0002067297\O,0,-3.6720066471,0.7696500745,0.00
 00367217\C,0,-2.5738572406,-0.0351635585,0.0000198048\C,0,-2.825769416
 2,-1.4145627145,-0.0000221257\C,0,-1.7645925244,-2.3092023181,-0.00002
 46189\C,0,-0.4385741543,-1.8599541123,0.0000095275\C,0,-0.2141914942,-
 0.4890395322,0.0000534604\I,0,1.8038651729,0.2418057666,0.0001140761\C

 Normal termination of Gaussian 16 at Tue Sep 17 10:20:03 2024.
