 Gaussian 16, Revision C.02,

 ----------------------------------------------------------------------
 #p B3LYP/gen pseudo=read EmpiricalDispersion=GD3BJ opt freq scf(xqc,ti
 ght) integral(grid=ultrafine)
 ----------------------------------------------------------------------

 ----------------------------------
 opt-freq conformers_unique/conf_ab
 ----------------------------------
 Symbolic Z-matrix:
 Charge =  0 Multiplicity = 1

 SCF Done:  E(RB3LYP) =  -357.583249458     A.U. after   14 cycles
 SCF Done:  E(RB3LYP) =  -357.584285078     A.U. after   12 cycles
 SCF Done:  E(RB3LYP) =  -357.584330886     A.U. after   11 cycles
 SCF Done:  E(RB3LYP) =  -357.584334564     A.U. after    8 cycles
 SCF Done:  E(RB3LYP) =  -357.584335058     A.U. after    8 cycles
 Optimization completed.
    -- Stationary point found.
 Normal termination of Gaussian 16 at Tue Sep 17 09:44:15 2024.

 ------------------------------------------------------------------
 #P Geom=AllCheck Guess=TCheck SCRF=Check GenChk RB3LYP/ChkBas Freq
 ------------------------------------------------------------------

 Structure from the checkpoint file:  "smiles_00088_conf_1.chk"
 ----------------------------------
 opt-freq conformers_unique/conf_ab
 ----------------------------------
 Charge =  0 Multiplicity = 1

 SCF Done:  E(RB3LYP) =  -357.584335058     A.U. after    1 cycles

                      1                      2                      3
                      A                      A                      A
 Frequencies --     76.6775               150.9629               161.0356
 Red. masses --      3.2508                 6.4107                 4.3869
 Frc consts  --      0.0113                 0.0861                 0.0670
 IR Inten    --      4.3354                 0.4605                 0.0272

                      4                      5                      6
                      A                      A                      A
 Frequencies --    214.0812               240.2011               280.0649
 Red. masses --      1.9451                 7.5138                 1.5532
 Frc consts  --      0.0525                 0.2554                 0.0718
 IR Inten    --      0.3792                 2.2326                 0.6844

                      7                      8                      9
                      A                      A                      A
 Frequencies --    294.2496               447.6289               462.5265
 Red. masses --      3.4755                 3.2620                 5.1367
 Frc consts  --      0.1773                 0.3851                 0.6475
 IR Inten    --      1.0933                 3.4006                 1.5659

                     10                     11                     12
                      A                      A                      A
 Frequencies --    568.8330               573.9827               662.9392
 Red. masses --      4.9917                 4.8383                 7.3148
 Frc consts  --      0.9516                 0.9392                 1.8941
 IR Inten    --      0.7352                 8.7342                12.6688

                     13                     14                     15
                      A                      A                      A
 Frequencies --    693.3352               778.1994               828.7984
 Red. masses --      2.4795                 1.3757                 6.3208
 Frc consts  --      0.7023                 0.4909                 2.5581
 IR Inten    --      8.6695                37.6736                56.1684

                     16                     17                     18
                      A                      A                      A
 Frequencies --    874.7698               886.8190               970.3843
 Red. masses --      1.3020                 1.5225                 1.2786
 Frc consts  --      0.5870                 0.7055                 0.7094
 IR Inten    --      3.0460                15.4010                 0.3284

                     19                     20                     21
                      A                      A                      A
 Frequencies --   1007.7010              1073.9226              1093.0520
 Red. masses --      5.2962                 5.7794                 2.1163
 Frc consts  --      3.1687                 3.9272                 1.4898
 IR Inten    --     24.1944               118.1727                14.8890

                     22                     23                     24
                      A                      A                      A
 Frequencies --   1127.8395              1179.5301              1201.5459
 Red. masses --      1.5411                 1.2736                 1.1092
 Frc consts  --      1.1550                 1.0440                 0.9435
 IR Inten    --      2.0546                 0.7126                 5.7777

                     25                     26                     27
                      A                      A                      A
 Frequencies --   1213.9132              1278.7900              1326.4034
 Red. masses --      1.3818                 2.6012                 1.6936
 Frc consts  --      1.1997                 2.5062                 1.7556
 IR Inten    --      1.0631               101.3760                96.0746

                     28                     29                     30
                      A                      A                      A
 Frequencies --   1360.8218              1473.6206              1484.7126
 Red. masses --      5.6984                 2.5259                 1.3458
 Frc consts  --      6.2173                 3.2317                 1.7479
 IR Inten    --     22.9118                30.1302                31.6892

                     31                     32                     33
                      A                      A                      A
 Frequencies --   1504.4044              1518.7973              1524.1352
 Red. masses --      1.0461                 1.1591                 1.8744
 Frc consts  --      1.3950                 1.5753                 2.5654
 IR Inten    --      5.8164                73.0651                40.1191

                     34                     35                     36
                      A                      A                      A
 Frequencies --   1625.0687              1649.2659              3020.3153
 Red. masses --      6.2853                 5.9575                 1.0348
 Frc consts  --      9.7796                 9.5477                 5.5618
 IR Inten    --     50.8468               176.1933                54.2099

                     37                     38                     39
                      A                      A                      A
 Frequencies --   3082.5258              3156.4814              3193.2667
 Red. masses --      1.1062                 1.1002                 1.0886
 Frc consts  --      6.1932                 6.4583                 6.5401
 IR Inten    --     39.9566                22.3723                 9.5417

                     40                     41                     42
                      A                      A                      A
 Frequencies --   3231.0312              3234.3853              3235.7699
 Red. masses --      1.0923                 1.0923                 1.0930
 Frc consts  --      6.7186                 6.7324                 6.7424
 IR Inten    --      3.4225                 2.5581                 7.7706

 - Thermochemistry -
 -------------------
 Temperature   298.150 Kelvin.  Pressure   1.00000 Atm.
 Atom     1 has atomic number  6 and mass  12.00000

 Molecular mass:   233.95009 amu.
 Principal axes and moments of inertia in atomic units:
                           1         2         3
     Eigenvalues --   638.105954446.199085072.80274
           X            0.99992   0.01303   0.00011
           Y           -0.01303   0.99992  -0.00013
           Z           -0.00011   0.00013   1.00000
 This molecule is an asymmetric top.
 Rotational symmetry number  1.
 Warning -- assumption of classical behavior for rotation
           may cause significant error
 Rotational temperatures (Kelvin)      0.13574     0.01948     0.01707
 Rotational constants (GHZ):           2.82828     0.40591     0.35577
 Zero-point vibrational energy     322769.2 (Joules/Mol)
                                   77.14368 (Kcal/Mol)
 Warning -- explicit consideration of  11 degrees of freedom as
           vibrations may cause significant error
 Vibrational temperatures:    110.32   217.20   231.69   308.02   345.60
          (Kelvin)            402.95   423.36   644.04   665.47   818.42
                              825.83   953.82   997.55  1119.66  1192.46
                             1258.60  1275.93  1396.17  1449.86  1545.14
                             1572.66  1622.71  1697.08  1728.76  1746.55
                             1839.89  1908.40  1957.92  2120.21  2136.17
                             2164.50  2185.21  2192.89  2338.11  2372.93
                             4345.56  4435.07  4541.47  4594.40  4648.73
                             4653.56  4655.55

 Zero-point correction=                           0.122936 (Hartree/Particle)
 Thermal correction to Energy=                    0.131379
 Thermal correction to Enthalpy=                  0.132324
 Thermal correction to Gibbs Free Energy=         0.087727
 Sum of electronic and zero-point Energies=           -357.461399
 Sum of electronic and thermal Energies=              -357.452956
 Sum of electronic and thermal Enthalpies=            -357.452012
 Sum of electronic and thermal Free Energies=         -357.496608

                     E (Thermal)             CV                S
                      KCal/Mol        Cal/Mol-Kelvin    Cal/Mol-Kelvin
 Total                   82.442             30.812             93.861
 Electronic               0.000              0.000              0.000
 Translational            0.889              2.981             42.252
 Rotational               0.889              2.981             31.043
 Vibrational             80.664             24.851             20.567
 Vibration     1          0.599              1.965              3.974
 Vibration     2          0.618              1.902              2.660
 Vibration     3          0.622              1.890              2.538
 Vibration     4          0.644              1.820              2.009
 Vibration     5          0.657              1.779              1.801
 Vibration     6          0.680              1.710              1.533
 Vibration     7          0.689              1.684              1.449
 Vibration     8          0.807              1.366              0.803
 Vibration     9          0.820              1.333              0.759
 Vibration    10          0.925              1.099              0.506
 Vibration    11          0.930              1.088              0.497

 Optimization completed.
    -- Stationary point found.
 Normal termination of Gaussian 16 at Tue Sep 17 09:44:56 2024.

 ----------------------------------------------------------------------
 #p M062X/def2tzvp geom=check guess=read scf(xqc,tight) integral(grid=u
 ltrafine) scrf(SMD, solvent=1,4-Dioxane) polar prop=efg volume
 ----------------------------------------------------------------------

 ---
 spe
 ---
 Structure from the checkpoint file:  "smiles_00088_conf_1.chk"
 Charge =  0 Multiplicity = 1

 SCF Done:  E(RM062X) =  -643.784988381     A.U. after   21 cycles

  Exact polarizability:     194.399      -4.350     132.545      -0.013       0.008      78.935
 Approx polarizability:     190.500      -3.986     157.997      -0.010       0.009      98.708

 1\1\GINC-HPC-21-32\SP\RM062X\def2TZVP\C7H7I1O1\MANTIND\17-Sep-2024\0\\
 #p M062X/def2tzvp geom=check guess=read scf(xqc,tight) integral(grid=u
 ltrafine) scrf(SMD, solvent=1,4-Dioxane) polar prop=efg volume\\spe\\0
 ,1\C,0,-4.6409132561,1.3626923005,-0.0002463342\O,0,-3.2349088616,1.55
 32160845,0.0000964976\C,0,-2.4408996043,0.4469652137,0.0000292547\C,0,
 -2.9110984887,-0.8706514234,-0.0001911177\C,0,-1.9924533821,-1.9227012
 35,-0.0002284331\C,0,-0.6191797112,-1.690597223,-0.000048089\C,0,-0.17
 74701142,-0.3659036208,0.0001730106\I,0,1.9298235415,0.0309031324,0.00

 Normal termination of Gaussian 16 at Tue Sep 17 10:13:23 2024.
 Gaussian 16:  ES64L-G16RevC.02  7-Dec-2021

 ----------------------------------------------------------------------
 #p M062X/def2tzvp geom=check guess=read scf(xqc,tight) integral(grid=u
 ltrafine) scrf(SMD, solvent=1,4-Dioxane) nmr=giao
 ----------------------------------------------------------------------

 ---
 spe
 ---
 Structure from the checkpoint file:  "smiles_00088_conf_1.chk"
 Charge =  0 Multiplicity = 1

                         Standard orientation:
 ---------------------------------------------------------------------
 Center     Atomic      Atomic             Coordinates (Angstroms)
 Number     Number       Type             X           Y           Z
 ---------------------------------------------------------------------
      1          6           0       -4.494586   -0.929117    0.000443
      2          8           0       -3.114364   -1.257955    0.000100
      3          6           0       -2.214695   -0.235781    0.000167
      4          6           0       -2.552085    1.121926    0.000387
      5          6           0       -1.533762    2.077820    0.000425
      6          6           0       -0.190228    1.710848    0.000244
      7          6           0        0.118113    0.348921    0.000023
      8         53           0        2.175746   -0.254642   -0.000257
      9          6           0       -0.866227   -0.627399   -0.000016
     10          1           0       -4.772414   -0.356250   -0.893293
     11          1           0       -4.772015   -0.356453    0.894432
     12          1           0       -5.030399   -1.878922    0.000452
     13          1           0       -3.586554    1.440662    0.000524
     14          1           0       -1.796768    3.131457    0.000596
     15          1           0        0.591239    2.460291    0.000274
     16          1           0       -0.631894   -1.684446   -0.000182
 ---------------------------------------------------------------------

 SCF Done:  E(RM062X) =  -643.784988381     A.U. after    1 cycles

      1  C    Isotropic =   129.5543   Anisotropy =    74.3462

      2  O    Isotropic =   221.9182   Anisotropy =    91.2323

      3  C    Isotropic =     1.5834   Anisotropy =   163.7393

      4  C    Isotropic =    58.0680   Anisotropy =   187.7769

      5  C    Isotropic =    32.8481   Anisotropy =   212.6651

      6  C    Isotropic =    36.3015   Anisotropy =   170.4158

      7  C    Isotropic =    26.5003   Anisotropy =   141.3323

      8  I    Isotropic =   434.6100   Anisotropy =    73.4521

      9  C    Isotropic =    39.5131   Anisotropy =   147.7721

     10  H    Isotropic =    28.2379   Anisotropy =     8.3288

     11  H    Isotropic =    28.2381   Anisotropy =     8.3285

     12  H    Isotropic =    27.8154   Anisotropy =     8.5045

     13  H    Isotropic =    24.3787   Anisotropy =     7.9826

     14  H    Isotropic =    23.7629   Anisotropy =     6.1463

     15  H    Isotropic =    24.0098   Anisotropy =    11.5677

     16  H    Isotropic =    23.9727   Anisotropy =    13.2350

 The electronic state is 1-A.
 Alpha  occ. eigenvalues --  -19.66261 -10.61518 -10.59898 -10.58968 -10.55539
 Alpha  occ. eigenvalues --  -10.55149 -10.54921 -10.54880  -7.10178  -5.09515
 Alpha  occ. eigenvalues --   -5.08483  -5.08478  -2.06345  -2.05914  -2.05913
 Alpha  occ. eigenvalues --   -2.05055  -2.05054  -1.19678  -0.97064  -0.86386
 Alpha  occ. eigenvalues --   -0.86267  -0.79300  -0.77488  -0.69951  -0.66775
 Alpha  occ. eigenvalues --   -0.60836  -0.56616  -0.56521  -0.55277  -0.50789
 Alpha  occ. eigenvalues --   -0.49055  -0.47609  -0.46187  -0.44346  -0.41441
 Alpha  occ. eigenvalues --   -0.40518  -0.38348  -0.34937  -0.31976  -0.29760
 Alpha  occ. eigenvalues --   -0.28445
 Alpha virt. eigenvalues --   -0.00302   0.00771   0.02358   0.07811   0.09906
 Alpha virt. eigenvalues --    0.10828   0.12122   0.13362   0.14011   0.15208
 Alpha virt. eigenvalues --    0.15876   0.16557   0.17200   0.17902   0.19101

 Mulliken charges:
               1
     1  C   -0.309333
     2  O   -0.283105
     3  C    0.307151
     4  C   -0.270610
     5  C   -0.141814
     6  C   -0.237485
     7  C    0.110779
     8  I   -0.107501
     9  C   -0.276467
    10  H    0.160324
    11  H    0.160326
    12  H    0.165274
    13  H    0.181287
    14  H    0.167481
    15  H    0.182620
    16  H    0.191072
 Sum of Mulliken charges =  -0.00000

 Dipole moment (field-independent basis, Debye):
    X=             -3.4977    Y=              1.1696    Z=              0.0007  Tot=              3.6881
 Quadrupole moment (field-independent basis, Debye-Ang):
   XX=            -57.4209   YY=            -69.8965   ZZ=            -77.9650
   XY=             -1.6093   XZ=             -0.0031   YZ=              0.0010

 1\1\GINC-HPC-21-32\SP\RM062X\def2TZVP\C7H7I1O1\MANTIND\17-Sep-2024\0\\
 #p M062X/def2tzvp geom=check guess=read scf(xqc,tight) integral(grid=u
 ltrafine) scrf(SMD, solvent=1,4-Dioxane) nmr=giao\\spe\\0,1\C,0,-4.640
 9132561,1.3626923005,-0.0002463342\O,0,-3.2349088616,1.5532160845,0.00
 00964976\C,0,-2.4408996043,0.4469652137,0.0000292547\C,0,-2.9110984887
 ,-0.8706514234,-0.0001911177\C,0,-1.9924533821,-1.922701235,-0.0002284
 331\C,0,-0.6191797112,-1.690597223,-0.000048089\C,0,-0.1774701142,-0.3
 659036208,0.0001730106\I,0,1.9298235415,0.0309031324,0.0004538213\C,0,

 Normal termination of Gaussian 16 at Tue Sep 17 10:20:54 2024.
