 Gaussian 16, Revision C.02,

 ----------------------------------------------------------------------
 #p B3LYP/6-31G(d,p) EmpiricalDispersion=GD3BJ opt freq scf(xqc,tight)
 integral(grid=ultrafine)
 ----------------------------------------------------------------------

 ----------------------------------
 opt-freq conformers_unique/conf_aa
 ----------------------------------
 Symbolic Z-matrix:
 Charge =  0 Multiplicity = 1

 SCF Done:  E(RB3LYP) =  -2933.94702603     A.U. after   14 cycles
 SCF Done:  E(RB3LYP) =  -2933.94818479     A.U. after   12 cycles
 SCF Done:  E(RB3LYP) =  -2933.94828055     A.U. after   11 cycles
 SCF Done:  E(RB3LYP) =  -2933.94828886     A.U. after    8 cycles
 Optimization completed.
    -- Stationary point found.
 Normal termination of Gaussian 16 at Tue Sep 17 09:45:17 2024.

 ----------------------------------------------------------------------
 #P Geom=AllCheck Guess=TCheck SCRF=Check GenChk RB3LYP/6-31G(d,p) Freq
 ----------------------------------------------------------------------

 Structure from the checkpoint file:  "smiles_00041_conf_0.chk"
 ----------------------------------
 opt-freq conformers_unique/conf_aa
 ----------------------------------
 Charge =  0 Multiplicity = 1

 SCF Done:  E(RB3LYP) =  -2933.94828886     A.U. after    1 cycles

                      1                      2                      3
                      A                      A                      A
 Frequencies --     91.9998               127.1743               161.0192
 Red. masses --      3.3208                 4.6597                 6.4550
 Frc consts  --      0.0166                 0.0444                 0.0986
 IR Inten    --      1.9063                 3.5030                 1.4711

                      4                      5                      6
                      A                      A                      A
 Frequencies --    242.0071               284.0866               302.3836
 Red. masses --      1.3507                 5.1397                 2.6023
 Frc consts  --      0.0466                 0.2444                 0.1402
 IR Inten    --      0.3594                 0.9297                 0.0021

                      7                      8                      9
                      A                      A                      A
 Frequencies --    319.8173               474.7472               496.8400
 Red. masses --      5.9932                 4.3127                 6.0717
 Frc consts  --      0.3612                 0.5727                 0.8831
 IR Inten    --      1.6008                 0.5172                 2.0809

                     10                     11                     12
                      A                      A                      A
 Frequencies --    569.9586               578.2641               681.5267
 Red. masses --      4.2175                 6.1864                 6.5885
 Frc consts  --      0.8072                 1.2188                 1.8030
 IR Inten    --      2.4441                16.9144                28.9626

                     13                     14                     15
                      A                      A                      A
 Frequencies --    757.2359               813.6713               822.2465
 Red. masses --      3.3990                 1.5465                 6.5586
 Frc consts  --      1.1483                 0.6032                 2.6126
 IR Inten    --      7.5025                33.8402                 1.8479

                     16                     17                     18
                      A                      A                      A
 Frequencies --    920.7979               972.7234              1053.6376
 Red. masses --      1.3704                 1.3130                 6.7139
 Frc consts  --      0.6846                 0.7320                 4.3914
 IR Inten    --      0.7510                 0.8914                11.3470

                     19                     20                     21
                      A                      A                      A
 Frequencies --   1081.2911              1113.3055              1157.2440
 Red. masses --      5.2430                 2.5473                 1.3545
 Frc consts  --      3.6117                 1.8602                 1.0687
 IR Inten    --     76.6173                65.8765                15.1916

                     22                     23                     24
                      A                      A                      A
 Frequencies --   1179.0843              1213.8798              1258.5987
 Red. masses --      1.2731                 1.3631                 2.3909
 Frc consts  --      1.0428                 1.1834                 2.2314
 IR Inten    --      0.7583                 0.5885                53.8352

                     25                     26                     27
                      A                      A                      A
 Frequencies --   1317.4656              1352.8882              1462.9845
 Red. masses --      2.3539                 4.4263                 2.3729
 Frc consts  --      2.4072                 4.7732                 2.9924
 IR Inten    --     70.7314                94.6426               187.5569

                     28                     29                     30
                      A                      A                      A
 Frequencies --   1476.7593              1506.6553              1509.1098
 Red. masses --      1.7389                 1.0458                 1.7526
 Frc consts  --      2.2343                 1.3988                 2.3517
 IR Inten    --     15.0651                 6.6601                51.8104

                     31                     32                     33
                      A                      A                      A
 Frequencies --   1517.5479              1617.2796              1634.2812
 Red. masses --      1.0597                 5.1446                 6.6429
 Frc consts  --      1.4379                 7.9281                10.4535
 IR Inten    --     15.7940                36.3678                34.9165

                     34                     35                     36
                      A                      A                      A
 Frequencies --   3021.5857              3086.5052              3164.3436
 Red. masses --      1.0349                 1.1065                 1.1002
 Frc consts  --      5.5668                 6.2106                 6.4904
 IR Inten    --     47.1911                35.8911                15.1883

                     37                     38                     39
                      A                      A                      A
 Frequencies --   3188.6703              3209.9191              3228.7901
 Red. masses --      1.0883                 1.0930                 1.0938
 Frc consts  --      6.5195                 6.6353                 6.7187
 IR Inten    --      8.7851                20.5425                 6.2599

 - Thermochemistry -
 -------------------
 Temperature   298.150 Kelvin.  Pressure   1.00000 Atm.
 Atom     1 has atomic number  6 and mass  12.00000

 Molecular mass:   186.96327 amu.
 Principal axes and moments of inertia in atomic units:
                           1         2         3
     Eigenvalues --  1140.409831879.774993008.65856
           X            0.99955  -0.02996  -0.00014
           Y            0.02996   0.99955  -0.00003
           Z            0.00014   0.00002   1.00000
 This molecule is an asymmetric top.
 Rotational symmetry number  1.
 Warning -- assumption of classical behavior for rotation
           may cause significant error
 Rotational temperatures (Kelvin)      0.07595     0.04608     0.02879
 Rotational constants (GHZ):           1.58254     0.96008     0.59985
 Zero-point vibrational energy     292895.6 (Joules/Mol)
                                   70.00374 (Kcal/Mol)
 Warning -- explicit consideration of  11 degrees of freedom as
           vibrations may cause significant error
 Vibrational temperatures:    132.37   182.98   231.67   348.19   408.74
          (Kelvin)            435.06   460.15   683.06   714.84   820.04
                              831.99   980.56  1089.49  1170.69  1183.03
                             1324.82  1399.53  1515.95  1555.74  1601.80
                             1665.02  1696.44  1746.50  1810.84  1895.54
                             1946.50  2104.91  2124.73  2167.74  2171.27
                             2183.41  2326.90  2351.37  4347.39  4440.79
                             4552.78  4587.79  4618.36  4645.51

 Zero-point correction=                           0.111558 (Hartree/Particle)
 Thermal correction to Energy=                    0.119668
 Thermal correction to Enthalpy=                  0.120612
 Thermal correction to Gibbs Free Energy=         0.077351
 Sum of electronic and zero-point Energies=          -2933.836731
 Sum of electronic and thermal Energies=             -2933.828621
 Sum of electronic and thermal Enthalpies=           -2933.827677
 Sum of electronic and thermal Free Energies=        -2933.870938

                     E (Thermal)             CV                S
                      KCal/Mol        Cal/Mol-Kelvin    Cal/Mol-Kelvin
 Total                   75.092             29.416             91.049
 Electronic               0.000              0.000              0.000
 Translational            0.889              2.981             41.583
 Rotational               0.889              2.981             30.246
 Vibrational             73.315             23.454             19.220
 Vibration     1          0.602              1.955              3.617
 Vibration     2          0.611              1.926              2.988
 Vibration     3          0.622              1.890              2.538
 Vibration     4          0.658              1.776              1.788
 Vibration     5          0.682              1.703              1.509
 Vibration     6          0.694              1.669              1.404
 Vibration     7          0.706              1.636              1.311
 Vibration     8          0.831              1.306              0.724
 Vibration     9          0.852              1.257              0.666
 Vibration    10          0.926              1.096              0.504
 Vibration    11          0.935              1.078              0.489

                           ! Non-Optimized Parameters !
 Normal termination of Gaussian 16 at Tue Sep 17 09:46:09 2024.

 ----------------------------------------------------------------------
 #p M062X/def2tzvp geom=check guess=read scf(xqc,tight) integral(grid=u
 ltrafine) scrf(SMD, solvent=1,4-Dioxane) polar prop=efg volume
 ----------------------------------------------------------------------

 ---
 spe
 ---
 Structure from the checkpoint file:  "smiles_00041_conf_0.chk"
 Charge =  0 Multiplicity = 1

 SCF Done:  E(RM062X) =  -2936.39436377     A.U. after   12 cycles

  Exact polarizability:     145.092      10.276     132.237       0.011       0.002      67.248
 Approx polarizability:     156.968      11.831     143.535       0.011       0.002      82.209

 Normal termination of Gaussian 16 at Tue Sep 17 10:10:18 2024.
 Gaussian 16:  ES64L-G16RevC.02  7-Dec-2021

 ----------------------------------------------------------------------
 #p M062X/def2tzvp geom=check guess=read scf(xqc,tight) integral(grid=u
 ltrafine) scrf(SMD, solvent=1,4-Dioxane) nmr=giao
 ----------------------------------------------------------------------

 ---
 spe
 ---
 Structure from the checkpoint file:  "smiles_00041_conf_0.chk"
 Charge =  0 Multiplicity = 1

                         Standard orientation:
 ---------------------------------------------------------------------
 Center     Atomic      Atomic             Coordinates (Angstroms)
 Number     Number       Type             X           Y           Z
 ---------------------------------------------------------------------
      1          6           0       -1.461665    2.759961   -0.000037
      2          8           0       -0.468896    1.743573   -0.000086
      3          6           0       -0.880370    0.456490   -0.000148
      4          6           0       -2.210106    0.031952   -0.000349
      5          6           0       -2.486778   -1.337234   -0.000386
      6          6           0       -1.429246   -2.237131   -0.000221
      7          7           0       -0.147422   -1.837291   -0.000039
      8          6           0        0.108210   -0.551522   -0.000010
      9         35           0        1.947940   -0.019540    0.000263
     10          1           0       -2.093609    2.702271    0.894678
     11          1           0       -0.918384    3.704548    0.000167
     12          1           0       -2.093413    2.702551   -0.894909
     13          1           0       -3.019266    0.751963   -0.000482
     14          1           0       -3.512519   -1.690049   -0.000548
     15          1           0       -1.597845   -3.310029   -0.000236
 ---------------------------------------------------------------------

 SCF Done:  E(RM062X) =  -2936.39436377     A.U. after    1 cycles

      1  C    Isotropic =   129.3629   Anisotropy =    74.8002

      2  O    Isotropic =   220.5732   Anisotropy =    98.4245

      3  C    Isotropic =    10.3804   Anisotropy =   162.6013

      4  C    Isotropic =    48.0030   Anisotropy =   201.5494

      5  C    Isotropic =    40.7529   Anisotropy =   200.8579

      6  C    Isotropic =    22.8300   Anisotropy =   184.1270

      7  N    Isotropic =  -143.6325   Anisotropy =   577.5337

      8  C    Isotropic =    15.8952   Anisotropy =    91.8070

      9  Br   Isotropic =  2035.5509   Anisotropy =  1243.3189

     10  H    Isotropic =    28.1998   Anisotropy =     8.8286

     11  H    Isotropic =    27.6164   Anisotropy =     8.4827

     12  H    Isotropic =    28.1995   Anisotropy =     8.8289

     13  H    Isotropic =    24.0280   Anisotropy =     8.9298

     14  H    Isotropic =    23.8099   Anisotropy =     6.2778

     15  H    Isotropic =    22.9994   Anisotropy =     6.2049

 The electronic state is 1-A.
 Alpha  occ. eigenvalues -- -485.36931 -63.35422 -57.17366 -57.17135 -57.17115
 Alpha  occ. eigenvalues --  -19.67338 -14.76600 -10.63300 -10.62903 -10.59652
 Alpha  occ. eigenvalues --  -10.58075 -10.56837 -10.56015  -9.02072  -6.84482
 Alpha  occ. eigenvalues --   -6.83624  -6.83555  -2.87860  -2.87562  -2.87491
 Alpha  occ. eigenvalues --   -2.86693  -2.86691  -1.21020  -1.07457  -0.91573
 Alpha  occ. eigenvalues --   -0.90607  -0.83922  -0.80594  -0.71344  -0.71031
 Alpha  occ. eigenvalues --   -0.62366  -0.59415  -0.57096  -0.56425  -0.51305
 Alpha  occ. eigenvalues --   -0.50434  -0.49569  -0.48335  -0.45014  -0.42156
 Alpha  occ. eigenvalues --   -0.42010  -0.38199  -0.34789  -0.33876  -0.33782
 Alpha  occ. eigenvalues --   -0.28973
 Alpha virt. eigenvalues --   -0.00614   0.01473   0.04381   0.07340   0.09640
 Alpha virt. eigenvalues --    0.10718   0.12955   0.13313   0.14576   0.14798
 Alpha virt. eigenvalues --    0.15586   0.17679   0.18992   0.21233   0.22625

 Mulliken charges:
               1
     1  C   -0.318874
     2  O   -0.269167
     3  C    0.227486
     4  C   -0.190985
     5  C   -0.176289
     6  C   -0.071397
     7  N   -0.217191
     8  C    0.091773
     9  Br  -0.096196
    10  H    0.164141
    11  H    0.170732
    12  H    0.164141
    13  H    0.188017
    14  H    0.166449
    15  H    0.167362
 Sum of Mulliken charges =  -0.00000

 Dipole moment (field-independent basis, Debye):
    X=             -5.1114    Y=              2.3227    Z=             -0.0005  Tot=              5.6144
 Quadrupole moment (field-independent basis, Debye-Ang):
   XX=            -55.9274   YY=            -58.1504   ZZ=            -67.1292
   XY=             -0.3567   XZ=              0.0015   YZ=              0.0007

 Normal termination of Gaussian 16 at Tue Sep 17 10:18:39 2024.
