 Gaussian 16, Revision C.02,

 ----------------------------------------------------------------------
 #p B3LYP/6-31G(d,p) EmpiricalDispersion=GD3BJ opt freq scf(xqc,tight)
 integral(grid=ultrafine)
 ----------------------------------------------------------------------

 ----------------------------------
 opt-freq conformers_unique/conf_ac
 ----------------------------------
 Symbolic Z-matrix:
 Charge =  0 Multiplicity = 1

 SCF Done:  E(RB3LYP) =  -2933.94321421     A.U. after   14 cycles
 SCF Done:  E(RB3LYP) =  -2933.94452249     A.U. after   12 cycles
 SCF Done:  E(RB3LYP) =  -2933.94473604     A.U. after   11 cycles
 SCF Done:  E(RB3LYP) =  -2933.94508047     A.U. after   11 cycles
 SCF Done:  E(RB3LYP) =  -2933.94541501     A.U. after   11 cycles
 SCF Done:  E(RB3LYP) =  -2933.94594097     A.U. after   11 cycles
 SCF Done:  E(RB3LYP) =  -2933.94611828     A.U. after   11 cycles
 SCF Done:  E(RB3LYP) =  -2933.94619089     A.U. after   11 cycles
 SCF Done:  E(RB3LYP) =  -2933.94621245     A.U. after   10 cycles
 SCF Done:  E(RB3LYP) =  -2933.94622426     A.U. after   10 cycles
 SCF Done:  E(RB3LYP) =  -2933.94622513     A.U. after    8 cycles
 Optimization completed.
    -- Stationary point found.
 Normal termination of Gaussian 16 at Tue Sep 17 09:46:19 2024.

 ----------------------------------------------------------------------
 #P Geom=AllCheck Guess=TCheck SCRF=Check GenChk RB3LYP/6-31G(d,p) Freq
 ----------------------------------------------------------------------

 Structure from the checkpoint file:  "smiles_00041_conf_2.chk"
 ----------------------------------
 opt-freq conformers_unique/conf_ac
 ----------------------------------
 Charge =  0 Multiplicity = 1

 SCF Done:  E(RB3LYP) =  -2933.94622513     A.U. after    1 cycles

                      1                      2                      3
                      A                      A                      A
 Frequencies --    110.3854               115.4698               154.4904
 Red. masses --      2.7079                 4.6065                 1.3444
 Frc consts  --      0.0194                 0.0362                 0.0189
 IR Inten    --      4.1856                 1.3648                 0.0955

                      4                      5                      6
                      A                      A                      A
 Frequencies --    187.7743               213.9512               294.3139
 Red. masses --      3.2542                 4.4410                11.5783
 Frc consts  --      0.0676                 0.1198                 0.5909
 IR Inten    --      1.1828                 4.6802                 1.9984

                      7                      8                      9
                      A                      A                      A
 Frequencies --    351.4905               473.8201               482.5704
 Red. masses --      4.1196                 6.1157                 4.3062
 Frc consts  --      0.2999                 0.8090                 0.5908
 IR Inten    --      2.9804                13.5670                 0.8089

                     10                     11                     12
                      A                      A                      A
 Frequencies --    544.3401               609.2760               667.5780
 Red. masses --      6.0860                 4.4984                 7.5873
 Frc consts  --      1.0625                 0.9839                 1.9922
 IR Inten    --      3.9746                 5.5002                19.1161

                     13                     14                     15
                      A                      A                      A
 Frequencies --    764.8201               817.3732               837.0185
 Red. masses --      3.0920                 3.4733                 2.0120
 Frc consts  --      1.0656                 1.3672                 0.8305
 IR Inten    --     13.7164                 8.3737                19.8666

                     16                     17                     18
                      A                      A                      A
 Frequencies --    952.1823               986.1440              1036.1514
 Red. masses --      1.3858                 1.3394                 7.8498
 Frc consts  --      0.7403                 0.7675                 4.9654
 IR Inten    --      0.3277                 0.4789                63.1902

                     19                     20                     21
                      A                      A                      A
 Frequencies --   1073.8716              1095.5281              1135.8089
 Red. masses --      5.2735                 2.2645                 1.3577
 Frc consts  --      3.5830                 1.6013                 1.0320
 IR Inten    --     52.8947                27.8850                15.4319

                     22                     23                     24
                      A                      A                      A
 Frequencies --   1179.6500              1212.1724              1255.0817
 Red. masses --      1.2494                 1.4046                 2.1502
 Frc consts  --      1.0244                 1.2160                 1.9956
 IR Inten    --      3.4594                 6.3707                50.2487

                     25                     26                     27
                      A                      A                      A
 Frequencies --   1303.3762              1315.7102              1444.3133
 Red. masses --      2.5071                 5.4660                 2.7625
 Frc consts  --      2.5094                 5.5749                 3.3952
 IR Inten    --     94.8166                 8.8310               186.3430

                     28                     29                     30
                      A                      A                      A
 Frequencies --   1471.8480              1501.8156              1506.4873
 Red. masses --      1.5508                 1.0855                 1.6055
 Frc consts  --      1.9794                 1.4425                 2.1467
 IR Inten    --      9.4597                 9.0654                33.5654

                     31                     32                     33
                      A                      A                      A
 Frequencies --   1518.0382              1610.0930              1631.1340
 Red. masses --      1.0506                 5.4154                 6.4159
 Frc consts  --      1.4264                 8.2714                10.0574
 IR Inten    --      5.8307                13.8940                19.0275

                     34                     35                     36
                      A                      A                      A
 Frequencies --   3031.5528              3109.3194              3160.0707
 Red. masses --      1.0354                 1.1025                 1.1034
 Frc consts  --      5.6067                 6.2800                 6.4921
 IR Inten    --     54.7108                22.0527                21.3909

                     37                     38                     39
                      A                      A                      A
 Frequencies --   3185.7461              3205.6376              3219.6292
 Red. masses --      1.0889                 1.0904                 1.0977
 Frc consts  --      6.5114                 6.6016                 6.7040
 IR Inten    --     11.4967                10.8530                 9.4610

 - Thermochemistry -
 -------------------
 Temperature   298.150 Kelvin.  Pressure   1.00000 Atm.
 Atom     1 has atomic number  6 and mass  12.00000

 Molecular mass:   186.96327 amu.
 Principal axes and moments of inertia in atomic units:
                           1         2         3
     Eigenvalues --  1052.231821853.795262796.64300
           X            0.99735   0.07261   0.00391
           Y           -0.07267   0.99720   0.01765
           Z           -0.00262  -0.01789   0.99984
 This molecule is an asymmetric top.
 Rotational symmetry number  1.
 Warning -- assumption of classical behavior for rotation
           may cause significant error
 Rotational temperatures (Kelvin)      0.08231     0.04672     0.03097
 Rotational constants (GHZ):           1.71516     0.97354     0.64532
 Zero-point vibrational energy     291685.7 (Joules/Mol)
                                   69.71455 (Kcal/Mol)
 Warning -- explicit consideration of  11 degrees of freedom as
           vibrations may cause significant error
 Vibrational temperatures:    158.82   166.14   222.28   270.17   307.83
          (Kelvin)            423.45   505.72   681.72   694.31   783.18
                              876.61   960.50  1100.41  1176.02  1204.28
                             1369.98  1418.84  1490.79  1545.06  1576.22
                             1634.18  1697.25  1744.05  1805.78  1875.27
                             1893.01  2078.04  2117.66  2160.78  2167.50
                             2184.12  2316.56  2346.84  4361.73  4473.62
                             4546.64  4583.58  4612.20  4632.33

 Zero-point correction=                           0.111097 (Hartree/Particle)
 Thermal correction to Energy=                    0.119370
 Thermal correction to Enthalpy=                  0.120314
 Thermal correction to Gibbs Free Energy=         0.076751
 Sum of electronic and zero-point Energies=          -2933.835128
 Sum of electronic and thermal Energies=             -2933.826855
 Sum of electronic and thermal Enthalpies=           -2933.825911
 Sum of electronic and thermal Free Energies=        -2933.869474

                     E (Thermal)             CV                S
                      KCal/Mol        Cal/Mol-Kelvin    Cal/Mol-Kelvin
 Total                   74.906             29.614             91.687
 Electronic               0.000              0.000              0.000
 Translational            0.889              2.981             41.583
 Rotational               0.889              2.981             30.079
 Vibrational             73.128             23.652             20.025
 Vibration     1          0.606              1.941              3.262
 Vibration     2          0.608              1.937              3.175
 Vibration     3          0.620              1.898              2.616
 Vibration     4          0.632              1.857              2.250
 Vibration     5          0.644              1.820              2.010
 Vibration     6          0.689              1.684              1.449
 Vibration     7          0.728              1.572              1.160
 Vibration     8          0.831              1.308              0.727
 Vibration     9          0.839              1.289              0.703
 Vibration    10          0.899              1.152              0.556
 Vibration    11          0.968              1.012              0.434

                           ! Non-Optimized Parameters !
 Normal termination of Gaussian 16 at Tue Sep 17 09:47:06 2024.

 ----------------------------------------------------------------------
 #p M062X/def2tzvp geom=check guess=read scf(xqc,tight) integral(grid=u
 ltrafine) scrf(SMD, solvent=1,4-Dioxane) polar prop=efg volume
 ----------------------------------------------------------------------

 ---
 spe
 ---
 Structure from the checkpoint file:  "smiles_00041_conf_2.chk"
 Charge =  0 Multiplicity = 1

 SCF Done:  E(RM062X) =  -2936.38977568     A.U. after   12 cycles

  Exact polarizability:     151.001       6.080     119.677      -0.345      -3.757      68.655
 Approx polarizability:     160.598       3.853     133.567      -1.452      -7.935      85.365

 Normal termination of Gaussian 16 at Tue Sep 17 10:11:48 2024.
 Gaussian 16:  ES64L-G16RevC.02  7-Dec-2021

 ----------------------------------------------------------------------
 #p M062X/def2tzvp geom=check guess=read scf(xqc,tight) integral(grid=u
 ltrafine) scrf(SMD, solvent=1,4-Dioxane) nmr=giao
 ----------------------------------------------------------------------

 ---
 spe
 ---
 Structure from the checkpoint file:  "smiles_00041_conf_2.chk"
 Charge =  0 Multiplicity = 1

                         Standard orientation:
 ---------------------------------------------------------------------
 Center     Atomic      Atomic             Coordinates (Angstroms)
 Number     Number       Type             X           Y           Z
 ---------------------------------------------------------------------
      1          6           0        0.501509    2.549901    0.602246
      2          8           0       -0.061405    1.887597   -0.538462
      3          6           0       -0.783355    0.765869   -0.252190
      4          6           0       -2.176230    0.813237   -0.244389
      5          6           0       -2.901252   -0.352910   -0.001369
      6          6           0       -2.198889   -1.531327    0.234029
      7          7           0       -0.859332   -1.592304    0.225802
      8          6           0       -0.188755   -0.485789   -0.010957
      9         35           0        1.725920   -0.618665   -0.053378
     10          1           0        1.197212    1.894103    1.134142
     11          1           0        1.040523    3.414685    0.214022
     12          1           0       -0.289376    2.884249    1.284433
     13          1           0       -2.663475    1.763037   -0.438912
     14          1           0       -3.985813   -0.345948    0.006388
     15          1           0       -2.717871   -2.465381    0.431018
 ---------------------------------------------------------------------

 SCF Done:  E(RM062X) =  -2936.38977568     A.U. after    1 cycles

      1  C    Isotropic =   122.4040   Anisotropy =    90.6115

      2  O    Isotropic =   254.5835   Anisotropy =    98.7934

      3  C    Isotropic =     7.3563   Anisotropy =   162.8659

      4  C    Isotropic =    29.7650   Anisotropy =   205.3830

      5  C    Isotropic =    40.3324   Anisotropy =   203.0144

      6  C    Isotropic =    16.6740   Anisotropy =   192.4561

      7  N    Isotropic =  -143.5980   Anisotropy =   571.7096

      8  C    Isotropic =     9.5553   Anisotropy =    99.1935

      9  Br   Isotropic =  2012.9644   Anisotropy =  1270.3700

     10  H    Isotropic =    27.4501   Anisotropy =     6.9652

     11  H    Isotropic =    27.8760   Anisotropy =     8.9345

     12  H    Isotropic =    28.5362   Anisotropy =     8.7921

     13  H    Isotropic =    23.5916   Anisotropy =     7.9280

     14  H    Isotropic =    23.8329   Anisotropy =     5.8904

     15  H    Isotropic =    22.7520   Anisotropy =     6.3581

 The electronic state is 1-A.
 Alpha  occ. eigenvalues -- -485.37483 -63.35973 -57.17916 -57.17686 -57.17668
 Alpha  occ. eigenvalues --  -19.65695 -14.76945 -10.63778 -10.62282 -10.58855
 Alpha  occ. eigenvalues --  -10.58813 -10.57044 -10.56229  -9.02620  -6.85024
 Alpha  occ. eigenvalues --   -6.84171  -6.84111  -2.88401  -2.88103  -2.88041
 Alpha  occ. eigenvalues --   -2.87248  -2.87246  -1.19289  -1.07782  -0.91869
 Alpha  occ. eigenvalues --   -0.90473  -0.84087  -0.79176  -0.72495  -0.70849
 Alpha  occ. eigenvalues --   -0.61232  -0.59197  -0.57382  -0.55060  -0.52070
 Alpha  occ. eigenvalues --   -0.50287  -0.48887  -0.48419  -0.45013  -0.43075
 Alpha  occ. eigenvalues --   -0.38848  -0.37677  -0.35168  -0.34818  -0.33676
 Alpha  occ. eigenvalues --   -0.30507
 Alpha virt. eigenvalues --   -0.00987   0.00463   0.03880   0.08178   0.09665
 Alpha virt. eigenvalues --    0.11499   0.11834   0.13824   0.14237   0.15152
 Alpha virt. eigenvalues --    0.15306   0.17103   0.19188   0.20702   0.21640

 Mulliken charges:
               1
     1  C   -0.247555
     2  O   -0.317689
     3  C    0.125486
     4  C   -0.130999
     5  C   -0.160095
     6  C   -0.054601
     7  N   -0.223289
     8  C    0.130422
     9  Br  -0.096688
    10  H    0.153046
    11  H    0.158225
    12  H    0.145092
    13  H    0.180399
    14  H    0.168908
    15  H    0.169338
 Sum of Mulliken charges =   0.00000

 Dipole moment (field-independent basis, Debye):
    X=             -2.9934    Y=              2.4316    Z=              1.1027  Tot=              4.0111
 Quadrupole moment (field-independent basis, Debye-Ang):
   XX=            -53.9386   YY=            -62.6485   ZZ=            -67.3253
   XY=              2.4275   XZ=              0.5652   YZ=              3.0595

 Normal termination of Gaussian 16 at Tue Sep 17 10:20:43 2024.
