 Gaussian 16, Revision C.02,

 ----------------------------------------------------------------------
 #p B3LYP/6-31G(d,p) EmpiricalDispersion=GD3BJ opt freq scf(xqc,tight)
 integral(grid=ultrafine)
 ----------------------------------------------------------------------

 ----------------------------------
 opt-freq conformers_unique/conf_aa
 ----------------------------------
 Symbolic Z-matrix:
 Charge =  0 Multiplicity = 1

 SCF Done:  E(RB3LYP) =  -2973.08155970     A.U. after   15 cycles
 SCF Done:  E(RB3LYP) =  -2973.08290050     A.U. after   12 cycles
 SCF Done:  E(RB3LYP) =  -2973.08294130     A.U. after    9 cycles
 SCF Done:  E(RB3LYP) =  -2973.08294416     A.U. after    9 cycles
 Optimization completed.
    -- Stationary point found.
 Normal termination of Gaussian 16 at Tue Sep 17 09:49:44 2024.

 ----------------------------------------------------------------------
 #P Geom=AllCheck Guess=TCheck SCRF=Check GenChk RB3LYP/6-31G(d,p) Freq
 ----------------------------------------------------------------------

 Structure from the checkpoint file:  "smiles_00018_conf_0.chk"
 ----------------------------------
 opt-freq conformers_unique/conf_aa
 ----------------------------------
 Charge =  0 Multiplicity = 1

 SCF Done:  E(RB3LYP) =  -2973.08294416     A.U. after    1 cycles

                      1                      2                      3
                      A                      A                      A
 Frequencies --     87.6364               176.8013               186.3133
 Red. masses --      5.9883                 7.2801                 3.7577
 Frc consts  --      0.0271                 0.1341                 0.0769
 IR Inten    --      0.0665                 0.0609                 0.0434

                      4                      5                      6
                      A                      A                      A
 Frequencies --    268.8473               273.8685               416.5989
 Red. masses --      5.6362                13.8055                 4.4543
 Frc consts  --      0.2400                 0.6101                 0.4555
 IR Inten    --      1.4557                 2.2884                 3.6460

                      7                      8                      9
                      A                      A                      A
 Frequencies --    418.0424               489.5624               512.4017
 Red. masses --      4.0422                 2.8988                 3.7022
 Frc consts  --      0.4162                 0.4093                 0.5727
 IR Inten    --      1.6611                 3.8563                 0.0080

                     10                     11                     12
                      A                      A                      A
 Frequencies --    534.2844               593.8684               637.3558
 Red. masses --      7.4685                 7.4773                 8.6116
 Frc consts  --      1.2561                 1.5537                 2.0611
 IR Inten    --      0.2174                11.6422                 2.4338

                     13                     14                     15
                      A                      A                      A
 Frequencies --    647.6213               770.0858               785.0742
 Red. masses --      3.3741                 1.3575                 4.9837
 Frc consts  --      0.8338                 0.4743                 1.8098
 IR Inten    --      1.5420                31.6027                 2.1413

                     16                     17                     18
                      A                      A                      A
 Frequencies --    801.9219               864.1466               883.5702
 Red. masses --      2.8359                 6.5215                 1.5195
 Frc consts  --      1.0745                 2.8693                 0.6989
 IR Inten    --     12.5813                30.2133                 3.9934

                     19                     20                     21
                      A                      A                      A
 Frequencies --    931.1301               956.1575               960.3731
 Red. masses --      1.5154                 6.0146                 1.4031
 Frc consts  --      0.7741                 3.2398                 0.7625
 IR Inten    --     16.7259                41.1448                 0.0001

                     22                     23                     24
                      A                      A                      A
 Frequencies --    973.4031              1003.3788              1046.0527
 Red. masses --      1.3571                 1.2841                 2.1967
 Frc consts  --      0.7576                 0.7617                 1.4162
 IR Inten    --      4.6075                 0.0629                 1.1342

                     25                     26                     27
                      A                      A                      A
 Frequencies --   1102.5041              1155.1492              1178.6456
 Red. masses --      2.4419                 1.5021                 1.2336
 Frc consts  --      1.7488                 1.1809                 1.0097
 IR Inten    --     27.8524                10.2325                 0.8708

                     28                     29                     30
                      A                      A                      A
 Frequencies --   1232.7465              1263.8246              1287.0161
 Red. masses --      1.9339                 2.0473                 1.6637
 Frc consts  --      1.7315                 1.9266                 1.6236
 IR Inten    --      7.8150                 0.7215                 7.8525

                     31                     32                     33
                      A                      A                      A
 Frequencies --   1377.6214              1393.6750              1407.3718
 Red. masses --      3.8737                 1.8675                 4.5171
 Frc consts  --      4.3315                 2.1372                 5.2715
 IR Inten    --     18.9593                 4.8224                 2.9873

                     34                     35                     36
                      A                      A                      A
 Frequencies --   1457.8581              1500.1491              1543.1374
 Red. masses --      2.7293                 2.6908                 3.3042
 Frc consts  --      3.4177                 3.5678                 4.6358
 IR Inten    --      9.0600                 4.5020                21.5552

                     37                     38                     39
                      A                      A                      A
 Frequencies --   1611.8020              1639.6942              1674.9039
 Red. masses --      7.1948                 6.4059                 5.9639
 Frc consts  --     11.0127                10.1475                 9.8573
 IR Inten    --      1.8283                14.9403                 1.3245

                     40                     41                     42
                      A                      A                      A
 Frequencies --   3178.7498              3182.9209              3194.0408
 Red. masses --      1.0913                 1.0867                 1.0897
 Frc consts  --      6.4966                 6.4865                 6.5499
 IR Inten    --      9.0153                 1.1740                 9.2669

                     43                     44                     45
                      A                      A                      A
 Frequencies --   3207.2682              3208.2604              3220.3926
 Red. masses --      1.0940                 1.0931                 1.0961
 Frc consts  --      6.6303                 6.6289                 6.6974
 IR Inten    --     13.6159                 7.7670                11.2315

 - Thermochemistry -
 -------------------
 Temperature   298.150 Kelvin.  Pressure   1.00000 Atm.
 Atom     1 has atomic number 35 and mass  78.91834

 Molecular mass:   206.96836 amu.
 Principal axes and moments of inertia in atomic units:
                           1         2         3
     Eigenvalues --   659.052324671.221835330.27415
           X            0.99994  -0.01076  -0.00006
           Y            0.01076   0.99994  -0.00004
           Z            0.00006   0.00004   1.00000
 This molecule is an asymmetric top.
 Rotational symmetry number  1.
 Warning -- assumption of classical behavior for rotation
           may cause significant error
 Rotational temperatures (Kelvin)      0.13142     0.01854     0.01625
 Rotational constants (GHZ):           2.73839     0.38635     0.33858
 Zero-point vibrational energy     330386.0 (Joules/Mol)
                                   78.96415 (Kcal/Mol)
 Warning -- explicit consideration of  11 degrees of freedom as
           vibrations may cause significant error
 Vibrational temperatures:    126.09   254.38   268.06   386.81   394.04
          (Kelvin)            599.39   601.47   704.37   737.23   768.72
                              854.44   917.01   931.78  1107.98  1129.55
                             1153.79  1243.31  1271.26  1339.69  1375.70
                             1381.76  1400.51  1443.64  1505.04  1586.26
                             1662.00  1695.81  1773.65  1818.36  1851.73
                             1982.09  2005.19  2024.89  2097.53  2158.38
                             2220.23  2319.02  2359.15  2409.81  4573.51
                             4579.51  4595.51  4614.54  4615.97  4633.43

 Zero-point correction=                           0.125837 (Hartree/Particle)
 Thermal correction to Energy=                    0.133954
 Thermal correction to Enthalpy=                  0.134898
 Thermal correction to Gibbs Free Energy=         0.091451
 Sum of electronic and zero-point Energies=          -2972.957107
 Sum of electronic and thermal Energies=             -2972.948990
 Sum of electronic and thermal Enthalpies=           -2972.948046
 Sum of electronic and thermal Free Energies=        -2972.991493

                     E (Thermal)             CV                S
                      KCal/Mol        Cal/Mol-Kelvin    Cal/Mol-Kelvin
 Total                   84.057             32.012             91.442
 Electronic               0.000              0.000              0.000
 Translational            0.889              2.981             41.886
 Rotational               0.889              2.981             31.174
 Vibrational             82.280             26.050             18.382
 Vibration     1          0.601              1.958              3.712
 Vibration     2          0.628              1.871              2.362
 Vibration     3          0.632              1.859              2.264
 Vibration     4          0.673              1.730              1.604
 Vibration     5          0.676              1.722              1.572
 Vibration     6          0.780              1.434              0.904
 Vibration     7          0.781              1.431              0.899
 Vibration     8          0.845              1.273              0.685
 Vibration     9          0.867              1.223              0.628
 Vibration    10          0.889              1.174              0.578
 Vibration    11          0.951              1.045              0.460

 Optimization completed.
    -- Stationary point found.
 Normal termination of Gaussian 16 at Tue Sep 17 09:50:52 2024.

 ----------------------------------------------------------------------
 #p M062X/def2tzvp geom=check guess=read scf(xqc,tight) integral(grid=u
 ltrafine) scrf(SMD, solvent=1,4-Dioxane) polar prop=efg volume
 ----------------------------------------------------------------------

 ---
 spe
 ---
 Structure from the checkpoint file:  "smiles_00018_conf_0.chk"
 Charge =  0 Multiplicity = 1

 SCF Done:  E(RM062X) =  -2975.50660359     A.U. after   13 cycles

  Exact polarizability:     245.753      -9.459     148.903       0.010       0.002      76.490
 Approx polarizability:     250.944      -9.515     181.069       0.009       0.002      96.864

 Normal termination of Gaussian 16 at Tue Sep 17 10:32:13 2024.
 Gaussian 16:  ES64L-G16RevC.02  7-Dec-2021

 ----------------------------------------------------------------------
 #p M062X/def2tzvp geom=check guess=read scf(xqc,tight) integral(grid=u
 ltrafine) scrf(SMD, solvent=1,4-Dioxane) nmr=giao
 ----------------------------------------------------------------------

 ---
 spe
 ---
 Structure from the checkpoint file:  "smiles_00018_conf_0.chk"
 Charge =  0 Multiplicity = 1

                         Standard orientation:
 ---------------------------------------------------------------------
 Center     Atomic      Atomic             Coordinates (Angstroms)
 Number     Number       Type             X           Y           Z
 ---------------------------------------------------------------------
      1         35           0       -2.904063   -0.219660   -0.000184
      2          6           0       -1.029505    0.122554   -0.000053
      3          6           0       -0.580734    1.468389    0.000029
      4          7           0        0.691586    1.797599    0.000105
      5          6           0        1.621954    0.797986    0.000122
      6          6           0        2.995082    1.149898    0.000220
      7          6           0        3.963114    0.171685    0.000244
      8          6           0        3.602744   -1.198207    0.000173
      9          6           0        2.278408   -1.571627    0.000081
     10          6           0        1.258508   -0.586118    0.000056
     11          6           0       -0.122152   -0.905267   -0.000036
     12          1           0       -1.311083    2.273974   -0.000004
     13          1           0        3.244118    2.205300    0.000272
     14          1           0        5.013063    0.446888    0.000317
     15          1           0        4.379952   -1.955860    0.000190
     16          1           0        1.996425   -2.620564    0.000027
     17          1           0       -0.445880   -1.940592   -0.000094
 ---------------------------------------------------------------------

 SCF Done:  E(RM062X) =  -2975.50660359     A.U. after    1 cycles

      1  Br   Isotropic =  2133.3759   Anisotropy =  1212.3718

      2  C    Isotropic =    31.5539   Anisotropy =   134.6216

      3  C    Isotropic =     9.6499   Anisotropy =   172.1394

      4  N    Isotropic =  -144.9899   Anisotropy =   600.6050

      5  C    Isotropic =    14.6093   Anisotropy =   230.6423

      6  C    Isotropic =    32.2108   Anisotropy =   194.7365

      7  C    Isotropic =    33.1004   Anisotropy =   218.5732

      8  C    Isotropic =    34.9964   Anisotropy =   214.9755

      9  C    Isotropic =    36.2526   Anisotropy =   191.7597

     10  C    Isotropic =    35.2366   Anisotropy =   231.8012

     11  C    Isotropic =    23.5334   Anisotropy =   184.4874

     12  H    Isotropic =    22.0463   Anisotropy =    11.8865

     13  H    Isotropic =    22.6979   Anisotropy =     7.7073

     14  H    Isotropic =    23.1853   Anisotropy =     6.7301

     15  H    Isotropic =    23.3136   Anisotropy =     6.8188

     16  H    Isotropic =    23.1232   Anisotropy =     8.6707

     17  H    Isotropic =    22.6948   Anisotropy =    12.8166

 The electronic state is 1-A.
 Alpha  occ. eigenvalues -- -485.38390 -63.36864 -57.18812 -57.18571 -57.18566
 Alpha  occ. eigenvalues --  -14.76348 -10.61166 -10.59486 -10.58933 -10.57565
 Alpha  occ. eigenvalues --  -10.57030 -10.55667 -10.55451 -10.55384 -10.54990
 Alpha  occ. eigenvalues --   -9.03507  -6.85924  -6.85032  -6.85014  -2.89300
 Alpha  occ. eigenvalues --   -2.88977  -2.88954  -2.88124  -2.88124  -1.06923
 Alpha  occ. eigenvalues --   -0.96263  -0.94481  -0.88417  -0.85269  -0.82405
 Alpha  occ. eigenvalues --   -0.74349  -0.71244  -0.69474  -0.61466  -0.60083
 Alpha  occ. eigenvalues --   -0.57934  -0.52949  -0.51535  -0.50443  -0.50057
 Alpha  occ. eigenvalues --   -0.48747  -0.47055  -0.43110  -0.42610  -0.41792
 Alpha  occ. eigenvalues --   -0.40061  -0.36347  -0.35803  -0.33657  -0.30603
 Alpha  occ. eigenvalues --   -0.28995
 Alpha virt. eigenvalues --   -0.03961  -0.00388   0.03171   0.03487   0.08898
 Alpha virt. eigenvalues --    0.10052   0.10768   0.11184   0.12754   0.12868
 Alpha virt. eigenvalues --    0.13986   0.15295   0.17179   0.18031   0.19104

 Mulliken charges:
               1
     1  Br  -0.093534
     2  C    0.032281
     3  C   -0.082759
     4  N   -0.238014
     5  C    0.178972
     6  C   -0.231023
     7  C   -0.139971
     8  C   -0.150119
     9  C   -0.208824
    10  C    0.077829
    11  C   -0.172467
    12  H    0.176866
    13  H    0.169670
    14  H    0.166519
    15  H    0.166632
    16  H    0.164116
    17  H    0.183827
 Sum of Mulliken charges =  -0.00000

 Dipole moment (field-independent basis, Debye):
    X=              1.7149    Y=             -2.1455    Z=              0.0000  Tot=              2.7467
 Quadrupole moment (field-independent basis, Debye-Ang):
   XX=            -66.9139   YY=            -72.8182   ZZ=            -80.0512
   XY=             -3.6203   XZ=              0.0007   YZ=              0.0000

 Normal termination of Gaussian 16 at Tue Sep 17 10:46:01 2024.
