 Gaussian 16, Revision C.02,

 ----------------------------------------------------------------------
 #p B3LYP/6-31G(d,p) EmpiricalDispersion=GD3BJ opt freq scf(xqc,tight)
 integral(grid=ultrafine)
 ----------------------------------------------------------------------

 ----------------------------------
 opt-freq conformers_unique/conf_ad
 ----------------------------------
 Symbolic Z-matrix:
 Charge =  0 Multiplicity = 1

 SCF Done:  E(RB3LYP) =  -3070.59200286     A.U. after   15 cycles
 SCF Done:  E(RB3LYP) =  -3070.59380352     A.U. after   12 cycles
 SCF Done:  E(RB3LYP) =  -3070.59382514     A.U. after   11 cycles
 SCF Done:  E(RB3LYP) =  -3070.59390630     A.U. after   11 cycles
 SCF Done:  E(RB3LYP) =  -3070.59397132     A.U. after   10 cycles
 SCF Done:  E(RB3LYP) =  -3070.59400685     A.U. after   11 cycles
 SCF Done:  E(RB3LYP) =  -3070.59420710     A.U. after   15 cycles
 SCF Done:  E(RB3LYP) =  -3070.59331789     A.U. after   15 cycles
 SCF Done:  E(RB3LYP) =  -3070.59439292     A.U. after   13 cycles
 SCF Done:  E(RB3LYP) =  -3070.59474409     A.U. after   15 cycles
 SCF Done:  E(RB3LYP) =  -3070.59592703     A.U. after   10 cycles
 SCF Done:  E(RB3LYP) =  -3070.59593813     A.U. after    9 cycles
 SCF Done:  E(RB3LYP) =  -3070.59594126     A.U. after   11 cycles
 SCF Done:  E(RB3LYP) =  -3070.59594349     A.U. after    8 cycles
 SCF Done:  E(RB3LYP) =  -3070.59594396     A.U. after   10 cycles
 SCF Done:  E(RB3LYP) =  -3070.59594403     A.U. after    7 cycles
 SCF Done:  E(RB3LYP) =  -3070.59594405     A.U. after    7 cycles
 Optimization completed.
    -- Stationary point found.
 Normal termination of Gaussian 16 at Tue Sep 17 09:50:45 2024.

 ----------------------------------------------------------------------
 #P Geom=AllCheck Guess=TCheck SCRF=Check GenChk RB3LYP/6-31G(d,p) Freq
 ----------------------------------------------------------------------

 Structure from the checkpoint file:  "smiles_00047_conf_3.chk"
 ----------------------------------
 opt-freq conformers_unique/conf_ad
 ----------------------------------
 Charge =  0 Multiplicity = 1

 SCF Done:  E(RB3LYP) =  -3070.59594405     A.U. after    1 cycles

                      1                      2                      3
                      A                      A                      A
 Frequencies --     17.7304                31.9297                62.9415
 Red. masses --      5.1468                 4.2174                 6.6729
 Frc consts  --      0.0010                 0.0025                 0.0156
 IR Inten    --      1.8377                 0.4266                 1.0969

                      4                      5                      6
                      A                      A                      A
 Frequencies --    112.6025               128.6618               183.2253
 Red. masses --      2.2408                 1.5471                 4.7241
 Frc consts  --      0.0167                 0.0151                 0.0934
 IR Inten    --      0.2016                 0.1729                 3.0233

                      7                      8                      9
                      A                      A                      A
 Frequencies --    203.3004               270.7762               291.6038
 Red. masses --      6.5191                 5.0646                 4.4756
 Frc consts  --      0.1587                 0.2188                 0.2242
 IR Inten    --      1.1835                 3.5569                11.2312

                     10                     11                     12
                      A                      A                      A
 Frequencies --    329.1559               351.4719               421.4836
 Red. masses --      5.0770                 4.8365                 2.6497
 Frc consts  --      0.3241                 0.3520                 0.2773
 IR Inten    --      4.7316                 6.2994                 4.0930

                     13                     14                     15
                      A                      A                      A
 Frequencies --    423.2357               505.0653               580.3000
 Red. masses --      2.7549                 3.0831                 5.8556
 Frc consts  --      0.2908                 0.4634                 1.1618
 IR Inten    --      1.8690                 9.2418                 7.8606

                     16                     17                     18
                      A                      A                      A
 Frequencies --    645.0363               665.2327               719.7228
 Red. masses --      6.4145                 4.5953                 4.1242
 Frc consts  --      1.5725                 1.1982                 1.2587
 IR Inten    --      1.7561                 8.0855                 2.6254

                     19                     20                     21
                      A                      A                      A
 Frequencies --    775.2748               825.3304               851.3341
 Red. masses --      4.8480                 1.8097                 1.3287
 Frc consts  --      1.7168                 0.7263                 0.5674
 IR Inten    --     24.6535                22.2989                 0.6147

                     22                     23                     24
                      A                      A                      A
 Frequencies --    856.1233               895.3358               961.2157
 Red. masses --      2.9503                 3.2583                 2.1247
 Frc consts  --      1.2741                 1.5389                 1.1566
 IR Inten    --     13.0619                 8.3782                 1.3742

                     25                     26                     27
                      A                      A                      A
 Frequencies --    972.7932               987.7002              1030.9127
 Red. masses --      1.4089                 1.3530                 4.8794
 Frc consts  --      0.7855                 0.7777                 3.0553
 IR Inten    --      0.3203                 0.2362                41.8078

                     28                     29                     30
                      A                      A                      A
 Frequencies --   1048.2717              1096.3612              1134.8436
 Red. masses --      4.8988                 2.5988                 1.4046
 Frc consts  --      3.1717                 1.8405                 1.0658
 IR Inten    --     34.1621                27.5270                12.7038

                     31                     32                     33
                      A                      A                      A
 Frequencies --   1166.7716              1179.6129              1211.5932
 Red. masses --      1.3910                 1.2818                 1.1526
 Frc consts  --      1.1157                 1.0508                 0.9969
 IR Inten    --    109.8379                 1.4323                 2.3867

                     34                     35                     36
                      A                      A                      A
 Frequencies --   1212.2050              1221.2130              1292.8393
 Red. masses --      1.4361                 2.7158                 2.0198
 Frc consts  --      1.2433                 2.3863                 1.9891
 IR Inten    --      2.8693                 6.0258               170.1222

                     37                     38                     39
                      A                      A                      A
 Frequencies --   1325.7450              1334.8737              1367.4229
 Red. masses --      2.4205                 1.8281                 2.4080
 Frc consts  --      2.5065                 1.9192                 2.6529
 IR Inten    --    119.8365                 2.5061                71.8392

                     40                     41                     42
                      A                      A                      A
 Frequencies --   1449.4667              1480.5196              1488.8993
 Red. masses --      2.5770                 1.2001                 1.1310
 Frc consts  --      3.1899                 1.5499                 1.4772
 IR Inten    --     13.8802                10.4492                15.6034

                     43                     44                     45
                      A                      A                      A
 Frequencies --   1496.0431              1509.2592              1533.0218
 Red. masses --      1.0465                 1.0505                 2.3188
 Frc consts  --      1.3800                 1.4099                 3.2108
 IR Inten    --      6.5948                 8.0513                60.1385

                     46                     47                     48
                      A                      A                      A
 Frequencies --   1629.9542              1651.2590              1821.5117
 Red. masses --      6.8886                 5.7099                10.9233
 Frc consts  --     10.7828                 9.1729                21.3534
 IR Inten    --      0.5430                 5.3166               186.9712

                     49                     50                     51
                      A                      A                      A
 Frequencies --   3067.5024              3075.9080              3139.8233
 Red. masses --      1.0297                 1.0611                 1.1040
 Frc consts  --      5.7088                 5.9151                 6.4123
 IR Inten    --     30.0524                10.6307                 5.7651

                     52                     53                     54
                      A                      A                      A
 Frequencies --   3145.9803              3179.1538              3188.6587
 Red. masses --      1.1071                 1.1072                 1.0895
 Frc consts  --      6.4555                 6.5935                 6.5269
 IR Inten    --     19.8837                14.8888                 9.8868

                     55                     56                     57
                      A                      A                      A
 Frequencies --   3203.6619              3221.8389              3223.4661
 Red. masses --      1.0891                 1.0937                 1.0948
 Frc consts  --      6.5859                 6.6887                 6.7027
 IR Inten    --      0.7916                 4.1139                 0.3750

 - Thermochemistry -
 -------------------
 Temperature   298.150 Kelvin.  Pressure   1.00000 Atm.
 Atom     1 has atomic number  6 and mass  12.00000

 Molecular mass:   227.97859 amu.
 Principal axes and moments of inertia in atomic units:
                           1         2         3
     Eigenvalues --   905.761047692.679077778.73448
           X            0.99989  -0.00252  -0.01452
           Y            0.00285   0.99973   0.02291
           Z            0.01446  -0.02295   0.99963
 This molecule is an asymmetric top.
 Rotational symmetry number  1.
 Warning -- assumption of classical behavior for rotation
           may cause significant error
 Rotational temperatures (Kelvin)      0.09563     0.01126     0.01113
 Rotational constants (GHZ):           1.99251     0.23461     0.23201
 Zero-point vibrational energy     425853.7 (Joules/Mol)
                                  101.78147 (Kcal/Mol)
 Warning -- explicit consideration of  15 degrees of freedom as
           vibrations may cause significant error
 Vibrational temperatures:     25.51    45.94    90.56   162.01   185.12
          (Kelvin)            263.62   292.50   389.59   419.55   473.58
                              505.69   606.42   608.94   726.68   834.92
                              928.06   957.12  1035.52  1115.45  1187.47
                             1224.88  1231.77  1288.19  1382.97  1399.63
                             1421.08  1483.25  1508.23  1577.42  1632.79
                             1678.72  1697.20  1743.21  1744.09  1757.05
                             1860.11  1907.45  1920.59  1967.42  2085.46
                             2130.14  2142.19  2152.47  2171.49  2205.68
                             2345.14  2375.79  2620.75  4413.45  4425.55
                             4517.51  4526.36  4574.09  4587.77  4609.35
                             4635.51  4637.85

 Zero-point correction=                           0.162199 (Hartree/Particle)
 Thermal correction to Energy=                    0.173858
 Thermal correction to Enthalpy=                  0.174802
 Thermal correction to Gibbs Free Energy=         0.120954
 Sum of electronic and zero-point Energies=          -3070.433745
 Sum of electronic and thermal Energies=             -3070.422086
 Sum of electronic and thermal Enthalpies=           -3070.421142
 Sum of electronic and thermal Free Energies=        -3070.474990

                     E (Thermal)             CV                S
                      KCal/Mol        Cal/Mol-Kelvin    Cal/Mol-Kelvin
 Total                  109.098             41.369            113.333
 Electronic               0.000              0.000              0.000
 Translational            0.889              2.981             42.174
 Rotational               0.889              2.981             32.361
 Vibrational            107.320             35.407             38.798
 Vibration     1          0.593              1.986              6.873
 Vibration     2          0.594              1.983              5.706
 Vibration     3          0.597              1.972              4.363
 Vibration     4          0.607              1.939              3.224
 Vibration     5          0.611              1.925              2.966
 Vibration     6          0.631              1.863              2.295
 Vibration     7          0.639              1.835              2.103
 Vibration     8          0.674              1.727              1.591
 Vibration     9          0.687              1.689              1.465
 Vibration    10          0.712              1.617              1.264
 Vibration    11          0.728              1.572              1.160
 Vibration    12          0.784              1.424              0.887
 Vibration    13          0.785              1.420              0.881
 Vibration    14          0.860              1.239              0.646
 Vibration    15          0.937              1.074              0.485

 Optimization completed.
    -- Stationary point found.
 Normal termination of Gaussian 16 at Tue Sep 17 09:52:27 2024.

 ----------------------------------------------------------------------
 #p M062X/def2tzvp geom=check guess=read scf(xqc,tight) integral(grid=u
 ltrafine) scrf(SMD, solvent=1,4-Dioxane) polar prop=efg volume
 ----------------------------------------------------------------------

 ---
 spe
 ---
 Structure from the checkpoint file:  "smiles_00047_conf_3.chk"
 Charge =  0 Multiplicity = 1

 SCF Done:  E(RM062X) =  -3073.02463963     A.U. after   11 cycles

  Exact polarizability:     197.103       4.358     139.083      12.312      -6.681     105.746
 Approx polarizability:     189.405       4.091     170.863      16.443     -10.514     122.140

 Normal termination of Gaussian 16 at Tue Sep 17 10:32:18 2024.
 Gaussian 16:  ES64L-G16RevC.02  7-Dec-2021

 ----------------------------------------------------------------------
 #p M062X/def2tzvp geom=check guess=read scf(xqc,tight) integral(grid=u
 ltrafine) scrf(SMD, solvent=1,4-Dioxane) nmr=giao
 ----------------------------------------------------------------------

 ---
 spe
 ---
 Structure from the checkpoint file:  "smiles_00047_conf_3.chk"
 Charge =  0 Multiplicity = 1

                         Standard orientation:
 ---------------------------------------------------------------------
 Center     Atomic      Atomic             Coordinates (Angstroms)
 Number     Number       Type             X           Y           Z
 ---------------------------------------------------------------------
      1          6           0        4.615192   -0.172902   -1.650619
      2          8           0        3.809505    0.554921   -0.707094
      3          6           0        3.303706   -0.183866    0.300410
      4          8           0        3.512784   -1.370050    0.439257
      5          6           0        2.404160    0.645401    1.198044
      6          6           0        0.948695    0.447825    0.815638
      7          6           0        0.168898    1.524573    0.386826
      8          6           0       -1.169048    1.346734    0.034369
      9          6           0       -1.722135    0.072370    0.109715
     10         35           0       -3.554172   -0.185424   -0.369542
     11          6           0       -0.964267   -1.020140    0.527187
     12          6           0        0.369139   -0.825646    0.877564
     13          1           0        4.939127    0.560646   -2.387768
     14          1           0        4.027148   -0.962466   -2.123992
     15          1           0        5.475356   -0.624621   -1.151387
     16          1           0        2.575004    0.307077    2.224370
     17          1           0        2.676744    1.699518    1.124305
     18          1           0        0.606972    2.516526    0.326738
     19          1           0       -1.771720    2.184679   -0.295377
     20          1           0       -1.411564   -2.005903    0.576017
     21          1           0        0.974628   -1.670694    1.188955
 ---------------------------------------------------------------------

 SCF Done:  E(RM062X) =  -3073.02463963     A.U. after    1 cycles

      1  C    Isotropic =   130.4497   Anisotropy =    74.3430

      2  O    Isotropic =   120.3861   Anisotropy =   180.3846

      3  C    Isotropic =    -9.9007   Anisotropy =   121.9972

      4  O    Isotropic =  -151.4232   Anisotropy =   676.8494

      5  C    Isotropic =   139.9362   Anisotropy =    21.8489

      6  C    Isotropic =    26.8406   Anisotropy =   220.5353

      7  C    Isotropic =    32.3534   Anisotropy =   187.7164

      8  C    Isotropic =    31.4666   Anisotropy =   184.2291

      9  C    Isotropic =    25.7233   Anisotropy =   141.3922

     10  Br   Isotropic =  2088.3914   Anisotropy =  1285.5036

     11  C    Isotropic =    30.8239   Anisotropy =   185.3396

     12  C    Isotropic =    32.5007   Anisotropy =   210.3624

     13  H    Isotropic =    28.3484   Anisotropy =     7.8549

     14  H    Isotropic =    28.4095   Anisotropy =     7.6721

     15  H    Isotropic =    28.1286   Anisotropy =     8.5654

     16  H    Isotropic =    28.1638   Anisotropy =     5.5050

     17  H    Isotropic =    28.3345   Anisotropy =     4.0662

     18  H    Isotropic =    23.8376   Anisotropy =     7.8331

     19  H    Isotropic =    23.7228   Anisotropy =    10.2472

     20  H    Isotropic =    23.6365   Anisotropy =    10.5727

     21  H    Isotropic =    23.2542   Anisotropy =     9.3585

 The electronic state is 1-A.
 Alpha  occ. eigenvalues -- -485.37515 -63.35996 -57.17940 -57.17705 -57.17699
 Alpha  occ. eigenvalues --  -19.67753 -19.62171 -10.67879 -10.60403 -10.58870
 Alpha  occ. eigenvalues --  -10.56743 -10.55947 -10.55799 -10.55745 -10.55545
 Alpha  occ. eigenvalues --  -10.55272  -9.02641  -6.85045  -6.84175  -6.84156
 Alpha  occ. eigenvalues --   -2.88421  -2.88106  -2.88083  -2.87273  -2.87272
 Alpha  occ. eigenvalues --   -1.23633  -1.14384  -0.98518  -0.91844  -0.87002
 Alpha  occ. eigenvalues --   -0.85707  -0.82223  -0.77616  -0.70805  -0.67580
 Alpha  occ. eigenvalues --   -0.65270  -0.59609  -0.58490  -0.57204  -0.55701
 Alpha  occ. eigenvalues --   -0.54397  -0.53249  -0.50182  -0.49533  -0.48448
 Alpha  occ. eigenvalues --   -0.47260  -0.45534  -0.44844  -0.43575  -0.41802
 Alpha  occ. eigenvalues --   -0.40885  -0.38186  -0.37839  -0.35891  -0.35163
 Alpha  occ. eigenvalues --   -0.32180  -0.29512
 Alpha virt. eigenvalues --    0.00275   0.00692   0.03583   0.04905   0.07720
 Alpha virt. eigenvalues --    0.09766   0.10464   0.10877   0.12310   0.13347
 Alpha virt. eigenvalues --    0.14136   0.14469   0.15516   0.16184   0.16540

 Mulliken charges:
               1
     1  C   -0.267502
     2  O   -0.271507
     3  C    0.397300
     4  O   -0.366628
     5  C   -0.364451
     6  C    0.080745
     7  C   -0.188215
     8  C   -0.155580
     9  C    0.031734
    10  Br  -0.116879
    11  C   -0.155251
    12  C   -0.187423
    13  H    0.156594
    14  H    0.161290
    15  H    0.160105
    16  H    0.192954
    17  H    0.171926
    18  H    0.168815
    19  H    0.180126
    20  H    0.182004
    21  H    0.189840
 Sum of Mulliken charges =  -0.00000

 Dipole moment (field-independent basis, Debye):
    X=              2.2310    Y=              2.0012    Z=             -0.3551  Tot=              3.0179
 Quadrupole moment (field-independent basis, Debye-Ang):
   XX=            -81.6305   YY=            -80.6656   ZZ=            -80.5191
   XY=              5.6720   XZ=             -4.4800   YZ=              1.1954

 Normal termination of Gaussian 16 at Tue Sep 17 10:48:34 2024.
