 Gaussian 16, Revision C.02,

 ----------------------------------------------------------------------
 #p B3LYP/6-31G(d,p) EmpiricalDispersion=GD3BJ opt freq scf(xqc,tight)
 integral(grid=ultrafine)
 ----------------------------------------------------------------------

 ----------------------------------
 opt-freq conformers_unique/conf_af
 ----------------------------------
 Symbolic Z-matrix:
 Charge =  0 Multiplicity = 1

 SCF Done:  E(RB3LYP) =  -3070.59085425     A.U. after   15 cycles
 SCF Done:  E(RB3LYP) =  -3070.59266513     A.U. after   12 cycles
 SCF Done:  E(RB3LYP) =  -3070.59279367     A.U. after   10 cycles
 SCF Done:  E(RB3LYP) =  -3070.59279844     A.U. after    9 cycles
 SCF Done:  E(RB3LYP) =  -3070.59280489     A.U. after    9 cycles
 SCF Done:  E(RB3LYP) =  -3070.59280580     A.U. after    8 cycles
 SCF Done:  E(RB3LYP) =  -3070.59280596     A.U. after    8 cycles
 SCF Done:  E(RB3LYP) =  -3070.59280660     A.U. after    9 cycles
 SCF Done:  E(RB3LYP) =  -3070.59280833     A.U. after   10 cycles
 SCF Done:  E(RB3LYP) =  -3070.59293594     A.U. after   14 cycles
 SCF Done:  E(RB3LYP) =  -3070.59594052     A.U. after   11 cycles
 SCF Done:  E(RB3LYP) =  -3070.59594325     A.U. after   11 cycles
 SCF Done:  E(RB3LYP) =  -3070.59594301     A.U. after   11 cycles
 SCF Done:  E(RB3LYP) =  -3070.59594392     A.U. after   10 cycles
 SCF Done:  E(RB3LYP) =  -3070.59594404     A.U. after    8 cycles
 SCF Done:  E(RB3LYP) =  -3070.59594405     A.U. after    7 cycles
 SCF Done:  E(RB3LYP) =  -3070.59594404     A.U. after    7 cycles
 Optimization completed.
    -- Stationary point found.
 Normal termination of Gaussian 16 at Tue Sep 17 09:51:44 2024.

 ----------------------------------------------------------------------
 #P Geom=AllCheck Guess=TCheck SCRF=Check GenChk RB3LYP/6-31G(d,p) Freq
 ----------------------------------------------------------------------

 Structure from the checkpoint file:  "smiles_00047_conf_5.chk"
 ----------------------------------
 opt-freq conformers_unique/conf_af
 ----------------------------------
 Charge =  0 Multiplicity = 1

 SCF Done:  E(RB3LYP) =  -3070.59594404     A.U. after    1 cycles

                      1                      2                      3
                      A                      A                      A
 Frequencies --     17.6943                31.9201                62.9432
 Red. masses --      5.1474                 4.2167                 6.6726
 Frc consts  --      0.0009                 0.0025                 0.0156
 IR Inten    --      1.8392                 0.4255                 1.0965

                      4                      5                      6
                      A                      A                      A
 Frequencies --    112.6000               128.6452               183.2282
 Red. masses --      2.2383                 1.5483                 4.7244
 Frc consts  --      0.0167                 0.0151                 0.0935
 IR Inten    --      0.2017                 0.1725                 3.0234

                      7                      8                      9
                      A                      A                      A
 Frequencies --    203.3026               270.7787               291.6045
 Red. masses --      6.5190                 5.0648                 4.4754
 Frc consts  --      0.1588                 0.2188                 0.2242
 IR Inten    --      1.1837                 3.5567                11.2314

                     10                     11                     12
                      A                      A                      A
 Frequencies --    329.1549               351.4727               421.4831
 Red. masses --      5.0771                 4.8363                 2.6496
 Frc consts  --      0.3241                 0.3520                 0.2773
 IR Inten    --      4.7324                 6.2988                 4.0953

                     13                     14                     15
                      A                      A                      A
 Frequencies --    423.2349               505.0646               580.3000
 Red. masses --      2.7550                 3.0831                 5.8557
 Frc consts  --      0.2908                 0.4634                 1.1618
 IR Inten    --      1.8680                 9.2425                 7.8598

                     16                     17                     18
                      A                      A                      A
 Frequencies --    645.0345               665.2326               719.7219
 Red. masses --      6.4142                 4.5955                 4.1241
 Frc consts  --      1.5724                 1.1982                 1.2587
 IR Inten    --      1.7571                 8.0844                 2.6259

                     19                     20                     21
                      A                      A                      A
 Frequencies --    775.2792               825.3316               851.3350
 Red. masses --      4.8478                 1.8097                 1.3286
 Frc consts  --      1.7168                 0.7263                 0.5673
 IR Inten    --     24.6555                22.2971                 0.6153

                     22                     23                     24
                      A                      A                      A
 Frequencies --    856.1301               895.3377               961.2143
 Red. masses --      2.9507                 3.2584                 2.1247
 Frc consts  --      1.2742                 1.5390                 1.1566
 IR Inten    --     13.0548                 8.3802                 1.3747

                     25                     26                     27
                      A                      A                      A
 Frequencies --    972.7926               987.7019              1030.9135
 Red. masses --      1.4089                 1.3530                 4.8794
 Frc consts  --      0.7856                 0.7777                 3.0553
 IR Inten    --      0.3199                 0.2368                41.8038

                     28                     29                     30
                      A                      A                      A
 Frequencies --   1048.2444              1096.3617              1134.8437
 Red. masses --      4.8988                 2.5987                 1.4046
 Frc consts  --      3.1715                 1.8404                 1.0658
 IR Inten    --     34.1736                27.5257                12.7000

                     31                     32                     33
                      A                      A                      A
 Frequencies --   1166.7743              1179.6041              1211.5945
 Red. masses --      1.3908                 1.2818                 1.1529
 Frc consts  --      1.1156                 1.0508                 0.9971
 IR Inten    --    109.7896                 1.4339                 2.3949

                     34                     35                     36
                      A                      A                      A
 Frequencies --   1212.2022              1221.2237              1292.8577
 Red. masses --      1.4356                 2.7153                 2.0196
 Frc consts  --      1.2429                 2.3860                 1.9889
 IR Inten    --      2.8617                 6.0259               170.0089

                     37                     38                     39
                      A                      A                      A
 Frequencies --   1325.7464              1334.8760              1367.4234
 Red. masses --      2.4209                 1.8282                 2.4083
 Frc consts  --      2.5070                 1.9193                 2.6532
 IR Inten    --    119.9435                 2.5116                71.8572

                     40                     41                     42
                      A                      A                      A
 Frequencies --   1449.4675              1480.5138              1488.8929
 Red. masses --      2.5769                 1.2002                 1.1310
 Frc consts  --      3.1898                 1.5499                 1.4772
 IR Inten    --     13.8804                10.4623                15.6021

                     43                     44                     45
                      A                      A                      A
 Frequencies --   1496.0400              1509.2555              1533.0239
 Red. masses --      1.0465                 1.0505                 2.3189
 Frc consts  --      1.3800                 1.4099                 3.2109
 IR Inten    --      6.5958                 8.0515                60.1382

                     46                     47                     48
                      A                      A                      A
 Frequencies --   1629.9578              1651.2628              1821.5012
 Red. masses --      6.8887                 5.7098                10.9230
 Frc consts  --     10.7831                 9.1728                21.3526
 IR Inten    --      0.5425                 5.3165               186.9795

                     49                     50                     51
                      A                      A                      A
 Frequencies --   3067.5177              3075.9216              3139.8555
 Red. masses --      1.0297                 1.0611                 1.1040
 Frc consts  --      5.7088                 5.9151                 6.4125
 IR Inten    --     30.0478                10.6314                 5.7648

                     52                     53                     54
                      A                      A                      A
 Frequencies --   3146.0014              3179.1750              3188.6540
 Red. masses --      1.1071                 1.1072                 1.0895
 Frc consts  --      6.4556                 6.5936                 6.5269
 IR Inten    --     19.8802                14.8870                 9.8892

                     55                     56                     57
                      A                      A                      A
 Frequencies --   3203.6620              3221.8433              3223.4701
 Red. masses --      1.0891                 1.0937                 1.0948
 Frc consts  --      6.5859                 6.6887                 6.7027
 IR Inten    --      0.7914                 4.1133                 0.3750

 - Thermochemistry -
 -------------------
 Temperature   298.150 Kelvin.  Pressure   1.00000 Atm.
 Atom     1 has atomic number  6 and mass  12.00000

 Molecular mass:   227.97859 amu.
 Principal axes and moments of inertia in atomic units:
                           1         2         3
     Eigenvalues --   905.784477692.570847778.60928
           X            0.99989   0.00252  -0.01452
           Y           -0.00285   0.99973  -0.02293
           Z            0.01446   0.02297   0.99963
 This molecule is an asymmetric top.
 Rotational symmetry number  1.
 Warning -- assumption of classical behavior for rotation
           may cause significant error
 Rotational temperatures (Kelvin)      0.09562     0.01126     0.01113
 Rotational constants (GHZ):           1.99246     0.23461     0.23201
 Zero-point vibrational energy     425853.9 (Joules/Mol)
                                  101.78154 (Kcal/Mol)
 Warning -- explicit consideration of  15 degrees of freedom as
           vibrations may cause significant error
 Vibrational temperatures:     25.46    45.93    90.56   162.01   185.09
          (Kelvin)            263.62   292.51   389.59   419.55   473.58
                              505.69   606.42   608.94   726.68   834.92
                              928.06   957.12  1035.52  1115.45  1187.47
                             1224.88  1231.78  1288.19  1382.97  1399.63
                             1421.08  1483.25  1508.19  1577.42  1632.79
                             1678.73  1697.19  1743.21  1744.09  1757.07
                             1860.13  1907.45  1920.59  1967.42  2085.46
                             2130.13  2142.18  2152.47  2171.48  2205.68
                             2345.15  2375.80  2620.73  4413.47  4425.57
                             4517.55  4526.39  4574.12  4587.76  4609.36
                             4635.51  4637.85

 Zero-point correction=                           0.162199 (Hartree/Particle)
 Thermal correction to Energy=                    0.173858
 Thermal correction to Enthalpy=                  0.174802
 Thermal correction to Gibbs Free Energy=         0.120952
 Sum of electronic and zero-point Energies=          -3070.433745
 Sum of electronic and thermal Energies=             -3070.422086
 Sum of electronic and thermal Enthalpies=           -3070.421142
 Sum of electronic and thermal Free Energies=        -3070.474992

                     E (Thermal)             CV                S
                      KCal/Mol        Cal/Mol-Kelvin    Cal/Mol-Kelvin
 Total                  109.098             41.369            113.337
 Electronic               0.000              0.000              0.000
 Translational            0.889              2.981             42.174
 Rotational               0.889              2.981             32.361
 Vibrational            107.320             35.407             38.802
 Vibration     1          0.593              1.986              6.877
 Vibration     2          0.594              1.983              5.706
 Vibration     3          0.597              1.972              4.363
 Vibration     4          0.607              1.939              3.224
 Vibration     5          0.611              1.925              2.966
 Vibration     6          0.631              1.863              2.295
 Vibration     7          0.639              1.835              2.103
 Vibration     8          0.674              1.727              1.591
 Vibration     9          0.687              1.689              1.465
 Vibration    10          0.712              1.617              1.264
 Vibration    11          0.728              1.572              1.160
 Vibration    12          0.784              1.424              0.887
 Vibration    13          0.785              1.420              0.881
 Vibration    14          0.860              1.239              0.646
 Vibration    15          0.937              1.074              0.485

 Optimization completed.
    -- Stationary point found.
 Normal termination of Gaussian 16 at Tue Sep 17 09:53:26 2024.

 ----------------------------------------------------------------------
 #p M062X/def2tzvp geom=check guess=read scf(xqc,tight) integral(grid=u
 ltrafine) scrf(SMD, solvent=1,4-Dioxane) polar prop=efg volume
 ----------------------------------------------------------------------

 ---
 spe
 ---
 Structure from the checkpoint file:  "smiles_00047_conf_5.chk"
 Charge =  0 Multiplicity = 1

 SCF Done:  E(RM062X) =  -3073.02463992     A.U. after   11 cycles

  Exact polarizability:     197.101      -4.360     139.080      12.312       6.688     105.750
 Approx polarizability:     189.404      -4.094     170.858      16.443      10.525     122.145

 Normal termination of Gaussian 16 at Tue Sep 17 10:32:04 2024.
 Gaussian 16:  ES64L-G16RevC.02  7-Dec-2021

 ----------------------------------------------------------------------
 #p M062X/def2tzvp geom=check guess=read scf(xqc,tight) integral(grid=u
 ltrafine) scrf(SMD, solvent=1,4-Dioxane) nmr=giao
 ----------------------------------------------------------------------

 ---
 spe
 ---
 Structure from the checkpoint file:  "smiles_00047_conf_5.chk"
 Charge =  0 Multiplicity = 1

                         Standard orientation:
 ---------------------------------------------------------------------
 Center     Atomic      Atomic             Coordinates (Angstroms)
 Number     Number       Type             X           Y           Z
 ---------------------------------------------------------------------
      1          6           0       -4.615113   -0.173382    1.650624
      2          8           0       -3.809423    0.554717    0.707296
      3          6           0       -3.303689   -0.183764   -0.300443
      4          8           0       -3.512789   -1.369904   -0.439658
      5          6           0       -2.404163    0.645755   -1.197882
      6          6           0       -0.948704    0.448047   -0.815561
      7          6           0       -0.369167   -0.825415   -0.877761
      8          6           0        0.964232   -1.020000   -0.527419
      9          6           0        1.722117    0.072410   -0.109706
     10         35           0        3.554148   -0.185535    0.369502
     11          6           0        1.169053    1.346763   -0.034081
     12          6           0       -0.168892    1.524689   -0.386505
     13          1           0       -4.027029   -0.963004    2.123847
     14          1           0       -5.475216   -0.625050    1.151246
     15          1           0       -4.939127    0.559987    2.387914
     16          1           0       -2.575067    0.307705   -2.224287
     17          1           0       -2.676733    1.699849   -1.123821
     18          1           0       -0.974666   -1.670389   -1.189334
     19          1           0        1.411522   -2.005756   -0.576461
     20          1           0        1.771736    2.184630    0.295839
     21          1           0       -0.606951    2.516636   -0.326207
 ---------------------------------------------------------------------

 SCF Done:  E(RM062X) =  -3073.02463992     A.U. after    1 cycles

      1  C    Isotropic =   130.4484   Anisotropy =    74.3459

      2  O    Isotropic =   120.3886   Anisotropy =   180.3712

      3  C    Isotropic =    -9.9011   Anisotropy =   122.0000

      4  O    Isotropic =  -151.4190   Anisotropy =   676.8358

      5  C    Isotropic =   139.9349   Anisotropy =    21.8492

      6  C    Isotropic =    26.8420   Anisotropy =   220.5380

      7  C    Isotropic =    32.5026   Anisotropy =   210.3627

      8  C    Isotropic =    30.8242   Anisotropy =   185.3393

      9  C    Isotropic =    25.7233   Anisotropy =   141.3918

     10  Br   Isotropic =  2088.3908   Anisotropy =  1285.5070

     11  C    Isotropic =    31.4666   Anisotropy =   184.2288

     12  C    Isotropic =    32.3524   Anisotropy =   187.7160

     13  H    Isotropic =    28.4097   Anisotropy =     7.6724

     14  H    Isotropic =    28.1284   Anisotropy =     8.5650

     15  H    Isotropic =    28.3484   Anisotropy =     7.8550

     16  H    Isotropic =    28.1638   Anisotropy =     5.5050

     17  H    Isotropic =    28.3345   Anisotropy =     4.0661

     18  H    Isotropic =    23.2543   Anisotropy =     9.3584

     19  H    Isotropic =    23.6366   Anisotropy =    10.5728

     20  H    Isotropic =    23.7227   Anisotropy =    10.2471

     21  H    Isotropic =    23.8376   Anisotropy =     7.8331

 The electronic state is 1-A.
 Alpha  occ. eigenvalues -- -485.37515 -63.35996 -57.17940 -57.17705 -57.17699
 Alpha  occ. eigenvalues --  -19.67753 -19.62171 -10.67879 -10.60403 -10.58871
 Alpha  occ. eigenvalues --  -10.56743 -10.55947 -10.55798 -10.55745 -10.55545
 Alpha  occ. eigenvalues --  -10.55272  -9.02641  -6.85045  -6.84175  -6.84156
 Alpha  occ. eigenvalues --   -2.88421  -2.88106  -2.88083  -2.87273  -2.87272
 Alpha  occ. eigenvalues --   -1.23634  -1.14384  -0.98518  -0.91844  -0.87002
 Alpha  occ. eigenvalues --   -0.85707  -0.82224  -0.77616  -0.70805  -0.67580
 Alpha  occ. eigenvalues --   -0.65270  -0.59609  -0.58490  -0.57204  -0.55701
 Alpha  occ. eigenvalues --   -0.54397  -0.53249  -0.50182  -0.49533  -0.48448
 Alpha  occ. eigenvalues --   -0.47260  -0.45534  -0.44844  -0.43575  -0.41802
 Alpha  occ. eigenvalues --   -0.40885  -0.38186  -0.37839  -0.35891  -0.35163
 Alpha  occ. eigenvalues --   -0.32180  -0.29512
 Alpha virt. eigenvalues --    0.00275   0.00692   0.03583   0.04905   0.07720
 Alpha virt. eigenvalues --    0.09766   0.10464   0.10877   0.12310   0.13347
 Alpha virt. eigenvalues --    0.14136   0.14469   0.15516   0.16184   0.16540

 Mulliken charges:
               1
     1  C   -0.267500
     2  O   -0.271501
     3  C    0.397295
     4  O   -0.366637
     5  C   -0.364434
     6  C    0.080738
     7  C   -0.187419
     8  C   -0.155253
     9  C    0.031737
    10  Br  -0.116882
    11  C   -0.155584
    12  C   -0.188214
    13  H    0.161292
    14  H    0.160107
    15  H    0.156595
    16  H    0.192949
    17  H    0.171924
    18  H    0.189842
    19  H    0.182004
    20  H    0.180127
    21  H    0.168813
 Sum of Mulliken charges =  -0.00000

 Dipole moment (field-independent basis, Debye):
    X=             -2.2311    Y=              2.0011    Z=              0.3558  Tot=              3.0181
 Quadrupole moment (field-independent basis, Debye-Ang):
   XX=            -81.6301   YY=            -80.6646   ZZ=            -80.5199
   XY=             -5.6707   XZ=             -4.4823   YZ=             -1.1962

 Normal termination of Gaussian 16 at Tue Sep 17 10:47:04 2024.
