 Gaussian 16, Revision C.02,

 ----------------------------------------------------------------------
 #p B3LYP/6-31G(d,p) EmpiricalDispersion=GD3BJ opt freq scf(xqc,tight)
 integral(grid=ultrafine)
 ----------------------------------------------------------------------

 ----------------------------------
 opt-freq conformers_unique/conf_ac
 ----------------------------------
 Symbolic Z-matrix:
 Charge =  0 Multiplicity = 1

 SCF Done:  E(RB3LYP) =  -3070.59310929     A.U. after   15 cycles
 SCF Done:  E(RB3LYP) =  -3070.59455350     A.U. after   11 cycles
 SCF Done:  E(RB3LYP) =  -3070.59404836     A.U. after   13 cycles
 SCF Done:  E(RB3LYP) =  -3070.59478056     A.U. after   12 cycles
 SCF Done:  E(RB3LYP) =  -3070.59482557     A.U. after   11 cycles
 SCF Done:  E(RB3LYP) =  -3070.59491335     A.U. after   11 cycles
 SCF Done:  E(RB3LYP) =  -3070.59495007     A.U. after   12 cycles
 SCF Done:  E(RB3LYP) =  -3070.59497909     A.U. after   11 cycles
 SCF Done:  E(RB3LYP) =  -3070.59528395     A.U. after   12 cycles
 SCF Done:  E(RB3LYP) =  -3070.52500300     A.U. after   16 cycles
 SCF Done:  E(RB3LYP) =  -3070.59594072     A.U. after   10 cycles
 SCF Done:  E(RB3LYP) =  -3070.59594166     A.U. after    9 cycles
 SCF Done:  E(RB3LYP) =  -3070.59594257     A.U. after   10 cycles
 SCF Done:  E(RB3LYP) =  -3070.59594336     A.U. after   10 cycles
 SCF Done:  E(RB3LYP) =  -3070.59594392     A.U. after    9 cycles
 SCF Done:  E(RB3LYP) =  -3070.59594404     A.U. after    8 cycles
 SCF Done:  E(RB3LYP) =  -3070.59594404     A.U. after    7 cycles
 Optimization completed.
    -- Stationary point found.
 Normal termination of Gaussian 16 at Tue Sep 17 09:48:58 2024.

 ----------------------------------------------------------------------
 #P Geom=AllCheck Guess=TCheck SCRF=Check GenChk RB3LYP/6-31G(d,p) Freq
 ----------------------------------------------------------------------

 Structure from the checkpoint file:  "smiles_00047_conf_2.chk"
 ----------------------------------
 opt-freq conformers_unique/conf_ac
 ----------------------------------
 Charge =  0 Multiplicity = 1

 SCF Done:  E(RB3LYP) =  -3070.59594404     A.U. after    1 cycles

                      1                      2                      3
                      A                      A                      A
 Frequencies --     17.7078                31.9046                62.9333
 Red. masses --      5.1463                 4.2172                 6.6722
 Frc consts  --      0.0010                 0.0025                 0.0156
 IR Inten    --      1.8389                 0.4263                 1.0967

                      4                      5                      6
                      A                      A                      A
 Frequencies --    112.5947               128.6346               183.2273
 Red. masses --      2.2360                 1.5494                 4.7244
 Frc consts  --      0.0167                 0.0151                 0.0935
 IR Inten    --      0.2018                 0.1723                 3.0232

                      7                      8                      9
                      A                      A                      A
 Frequencies --    203.2998               270.7677               291.6027
 Red. masses --      6.5190                 5.0649                 4.4748
 Frc consts  --      0.1587                 0.2188                 0.2242
 IR Inten    --      1.1834                 3.5562                11.2348

                     10                     11                     12
                      A                      A                      A
 Frequencies --    329.1550               351.4719               421.4757
 Red. masses --      5.0769                 4.8371                 2.6480
 Frc consts  --      0.3241                 0.3521                 0.2772
 IR Inten    --      4.7303                 6.3025                 4.1107

                     13                     14                     15
                      A                      A                      A
 Frequencies --    423.2286               505.0585               580.2923
 Red. masses --      2.7570                 3.0831                 5.8543
 Frc consts  --      0.2910                 0.4634                 1.1615
 IR Inten    --      1.8474                 9.2418                 7.8691

                     16                     17                     18
                      A                      A                      A
 Frequencies --    645.0358               665.2317               719.7199
 Red. masses --      6.4145                 4.5956                 4.1241
 Frc consts  --      1.5725                 1.1982                 1.2586
 IR Inten    --      1.7564                 8.0842                 2.6241

                     19                     20                     21
                      A                      A                      A
 Frequencies --    775.2738               825.3281               851.3287
 Red. masses --      4.8476                 1.8096                 1.3288
 Frc consts  --      1.7167                 0.7263                 0.5674
 IR Inten    --     24.6447                22.2972                 0.6140

                     22                     23                     24
                      A                      A                      A
 Frequencies --    856.1132               895.3521               961.2189
 Red. masses --      2.9493                 3.2590                 2.1244
 Frc consts  --      1.2736                 1.5393                 1.1564
 IR Inten    --     13.0729                 8.3784                 1.3745

                     25                     26                     27
                      A                      A                      A
 Frequencies --    972.7927               987.6963              1030.9145
 Red. masses --      1.4090                 1.3531                 4.8796
 Frc consts  --      0.7856                 0.7777                 3.0555
 IR Inten    --      0.3202                 0.2363                41.8177

                     28                     29                     30
                      A                      A                      A
 Frequencies --   1048.2790              1096.3617              1134.8445
 Red. masses --      4.8992                 2.5986                 1.4046
 Frc consts  --      3.1720                 1.8403                 1.0658
 IR Inten    --     34.1523                27.5259                12.6961

                     31                     32                     33
                      A                      A                      A
 Frequencies --   1166.7780              1179.6117              1211.5911
 Red. masses --      1.3912                 1.2818                 1.1527
 Frc consts  --      1.1159                 1.0508                 0.9969
 IR Inten    --    109.9219                 1.4345                 2.3913

                     34                     35                     36
                      A                      A                      A
 Frequencies --   1212.2024              1221.2301              1292.8198
 Red. masses --      1.4360                 2.7153                 2.0203
 Frc consts  --      1.2432                 2.3859                 1.9895
 IR Inten    --      2.8683                 6.0174               170.2681

                     37                     38                     39
                      A                      A                      A
 Frequencies --   1325.7605              1334.8784              1367.4416
 Red. masses --      2.4182                 1.8291                 2.4078
 Frc consts  --      2.5042                 1.9203                 2.6527
 IR Inten    --    119.6378                 2.5301                71.8641

                     40                     41                     42
                      A                      A                      A
 Frequencies --   1449.4704              1480.5221              1488.8990
 Red. masses --      2.5769                 1.2001                 1.1310
 Frc consts  --      3.1898                 1.5499                 1.4772
 IR Inten    --     13.8844                10.4461                15.6020

                     43                     44                     45
                      A                      A                      A
 Frequencies --   1496.0490              1509.2580              1533.0244
 Red. masses --      1.0465                 1.0505                 2.3189
 Frc consts  --      1.3800                 1.4099                 3.2110
 IR Inten    --      6.5945                 8.0535                60.1465

                     46                     47                     48
                      A                      A                      A
 Frequencies --   1629.9646              1651.2631              1821.5529
 Red. masses --      6.8888                 5.7099                10.9238
 Frc consts  --     10.7833                 9.1730                21.3555
 IR Inten    --      0.5416                 5.3165               186.9427

                     49                     50                     51
                      A                      A                      A
 Frequencies --   3067.5038              3075.8678              3139.8274
 Red. masses --      1.0297                 1.0611                 1.1040
 Frc consts  --      5.7088                 5.9150                 6.4123
 IR Inten    --     30.0571                10.6292                 5.7666

                     52                     53                     54
                      A                      A                      A
 Frequencies --   3145.9813              3179.1480              3188.6621
 Red. masses --      1.1071                 1.1072                 1.0895
 Frc consts  --      6.4555                 6.5935                 6.5269
 IR Inten    --     19.8808                14.8934                 9.8890

                     55                     56                     57
                      A                      A                      A
 Frequencies --   3203.6856              3221.8572              3223.4845
 Red. masses --      1.0891                 1.0937                 1.0948
 Frc consts  --      6.5860                 6.6887                 6.7028
 IR Inten    --      0.7907                 4.1124                 0.3751

 - Thermochemistry -
 -------------------
 Temperature   298.150 Kelvin.  Pressure   1.00000 Atm.
 Atom     1 has atomic number  6 and mass  12.00000

 Molecular mass:   227.97859 amu.
 Principal axes and moments of inertia in atomic units:
                           1         2         3
     Eigenvalues --   905.638917693.129057779.32796
           X            0.99989  -0.00252   0.01452
           Y            0.00285   0.99973  -0.02285
           Z           -0.01446   0.02289   0.99963
 This molecule is an asymmetric top.
 Rotational symmetry number  1.
 Warning -- assumption of classical behavior for rotation
           may cause significant error
 Rotational temperatures (Kelvin)      0.09564     0.01126     0.01113
 Rotational constants (GHZ):           1.99278     0.23459     0.23199
 Zero-point vibrational energy     425853.7 (Joules/Mol)
                                  101.78148 (Kcal/Mol)
 Warning -- explicit consideration of  15 degrees of freedom as
           vibrations may cause significant error
 Vibrational temperatures:     25.48    45.90    90.55   162.00   185.08
          (Kelvin)            263.62   292.50   389.57   419.55   473.58
                              505.69   606.41   608.93   726.67   834.91
                              928.06   957.12  1035.52  1115.45  1187.46
                             1224.87  1231.76  1288.21  1382.98  1399.63
                             1421.07  1483.26  1508.24  1577.42  1632.79
                             1678.73  1697.20  1743.21  1744.09  1757.08
                             1860.08  1907.47  1920.59  1967.44  2085.46
                             2130.14  2142.19  2152.48  2171.49  2205.68
                             2345.16  2375.80  2620.81  4413.45  4425.49
                             4517.51  4526.37  4574.08  4587.77  4609.39
                             4635.53  4637.88

 Zero-point correction=                           0.162199 (Hartree/Particle)
 Thermal correction to Energy=                    0.173858
 Thermal correction to Enthalpy=                  0.174802
 Thermal correction to Gibbs Free Energy=         0.120952
 Sum of electronic and zero-point Energies=          -3070.433745
 Sum of electronic and thermal Energies=             -3070.422086
 Sum of electronic and thermal Enthalpies=           -3070.421142
 Sum of electronic and thermal Free Energies=        -3070.474992

                     E (Thermal)             CV                S
                      KCal/Mol        Cal/Mol-Kelvin    Cal/Mol-Kelvin
 Total                  109.098             41.369            113.338
 Electronic               0.000              0.000              0.000
 Translational            0.889              2.981             42.174
 Rotational               0.889              2.981             32.361
 Vibrational            107.320             35.407             38.803
 Vibration     1          0.593              1.986              6.876
 Vibration     2          0.594              1.983              5.707
 Vibration     3          0.597              1.972              4.363
 Vibration     4          0.607              1.939              3.224
 Vibration     5          0.611              1.925              2.966
 Vibration     6          0.631              1.863              2.295
 Vibration     7          0.639              1.835              2.103
 Vibration     8          0.674              1.727              1.591
 Vibration     9          0.687              1.689              1.465
 Vibration    10          0.712              1.617              1.264
 Vibration    11          0.728              1.572              1.160
 Vibration    12          0.784              1.424              0.887
 Vibration    13          0.785              1.420              0.881
 Vibration    14          0.860              1.239              0.646
 Vibration    15          0.937              1.074              0.485

 Optimization completed.
    -- Stationary point found.
 Normal termination of Gaussian 16 at Tue Sep 17 09:50:42 2024.

 ----------------------------------------------------------------------
 #p M062X/def2tzvp geom=check guess=read scf(xqc,tight) integral(grid=u
 ltrafine) scrf(SMD, solvent=1,4-Dioxane) polar prop=efg volume
 ----------------------------------------------------------------------

 ---
 spe
 ---
 Structure from the checkpoint file:  "smiles_00047_conf_2.chk"
 Charge =  0 Multiplicity = 1

 SCF Done:  E(RM062X) =  -3073.02463927     A.U. after   11 cycles

  Exact polarizability:     197.108       4.359     139.085     -12.310       6.677     105.739
 Approx polarizability:     189.406       4.092     170.866     -16.441      10.507     122.134

 Normal termination of Gaussian 16 at Tue Sep 17 10:31:18 2024.
 Gaussian 16:  ES64L-G16RevC.02  7-Dec-2021

 ----------------------------------------------------------------------
 #p M062X/def2tzvp geom=check guess=read scf(xqc,tight) integral(grid=u
 ltrafine) scrf(SMD, solvent=1,4-Dioxane) nmr=giao
 ----------------------------------------------------------------------

 ---
 spe
 ---
 Structure from the checkpoint file:  "smiles_00047_conf_2.chk"
 Charge =  0 Multiplicity = 1

                         Standard orientation:
 ---------------------------------------------------------------------
 Center     Atomic      Atomic             Coordinates (Angstroms)
 Number     Number       Type             X           Y           Z
 ---------------------------------------------------------------------
      1          6           0       -4.615837    0.172639   -1.650250
      2          8           0       -3.809916   -0.555038   -0.706820
      3          6           0       -3.303676    0.183951    0.300332
      4          8           0       -3.512514    1.370202    0.438907
      5          6           0       -2.404091   -0.645250    1.197970
      6          6           0       -0.948620   -0.447686    0.815625
      7          6           0       -0.369056    0.825780    0.877402
      8          6           0        0.964362    1.020211    0.527024
      9          6           0        1.722214   -0.072358    0.109695
     10         35           0        3.554269    0.185353   -0.369568
     11          6           0        1.169119   -1.346726    0.034487
     12          6           0       -0.168833   -1.524497    0.386946
     13          1           0       -4.940267   -0.561094   -2.386996
     14          1           0       -4.027829    0.961898   -2.124171
     15          1           0       -5.475697    0.624722   -1.150818
     16          1           0       -2.574985   -0.306889    2.224283
     17          1           0       -2.676671   -1.699367    1.124263
     18          1           0       -0.974550    1.670877    1.188640
     19          1           0        1.411677    2.005968    0.575761
     20          1           0        1.771796   -2.184707   -0.295150
     21          1           0       -0.606918   -2.516453    0.326993
 ---------------------------------------------------------------------

 SCF Done:  E(RM062X) =  -3073.02463927     A.U. after    1 cycles

      1  C    Isotropic =   130.4510   Anisotropy =    74.3421

      2  O    Isotropic =   120.3775   Anisotropy =   180.3995

      3  C    Isotropic =    -9.8997   Anisotropy =   121.9919

      4  O    Isotropic =  -151.4124   Anisotropy =   676.8626

      5  C    Isotropic =   139.9385   Anisotropy =    21.8507

      6  C    Isotropic =    26.8430   Anisotropy =   220.5316

      7  C    Isotropic =    32.5017   Anisotropy =   210.3657

      8  C    Isotropic =    30.8247   Anisotropy =   185.3392

      9  C    Isotropic =    25.7229   Anisotropy =   141.3892

     10  Br   Isotropic =  2088.3828   Anisotropy =  1285.5268

     11  C    Isotropic =    31.4673   Anisotropy =   184.2281

     12  C    Isotropic =    32.3528   Anisotropy =   187.7130

     13  H    Isotropic =    28.3484   Anisotropy =     7.8550

     14  H    Isotropic =    28.4097   Anisotropy =     7.6727

     15  H    Isotropic =    28.1285   Anisotropy =     8.5647

     16  H    Isotropic =    28.1637   Anisotropy =     5.5049

     17  H    Isotropic =    28.3345   Anisotropy =     4.0658

     18  H    Isotropic =    23.2539   Anisotropy =     9.3584

     19  H    Isotropic =    23.6365   Anisotropy =    10.5729

     20  H    Isotropic =    23.7228   Anisotropy =    10.2473

     21  H    Isotropic =    23.8377   Anisotropy =     7.8335

 The electronic state is 1-A.
 Alpha  occ. eigenvalues -- -485.37515 -63.35996 -57.17940 -57.17705 -57.17699
 Alpha  occ. eigenvalues --  -19.67753 -19.62171 -10.67879 -10.60403 -10.58870
 Alpha  occ. eigenvalues --  -10.56743 -10.55947 -10.55798 -10.55745 -10.55545
 Alpha  occ. eigenvalues --  -10.55272  -9.02641  -6.85045  -6.84175  -6.84156
 Alpha  occ. eigenvalues --   -2.88421  -2.88106  -2.88082  -2.87272  -2.87272
 Alpha  occ. eigenvalues --   -1.23633  -1.14384  -0.98518  -0.91844  -0.87002
 Alpha  occ. eigenvalues --   -0.85707  -0.82224  -0.77615  -0.70805  -0.67580
 Alpha  occ. eigenvalues --   -0.65270  -0.59609  -0.58490  -0.57204  -0.55701
 Alpha  occ. eigenvalues --   -0.54397  -0.53249  -0.50182  -0.49533  -0.48448
 Alpha  occ. eigenvalues --   -0.47260  -0.45534  -0.44844  -0.43575  -0.41802
 Alpha  occ. eigenvalues --   -0.40885  -0.38186  -0.37839  -0.35891  -0.35163
 Alpha  occ. eigenvalues --   -0.32180  -0.29512
 Alpha virt. eigenvalues --    0.00275   0.00692   0.03583   0.04904   0.07720
 Alpha virt. eigenvalues --    0.09766   0.10464   0.10877   0.12311   0.13347
 Alpha virt. eigenvalues --    0.14137   0.14469   0.15516   0.16185   0.16540

 Mulliken charges:
               1
     1  C   -0.267507
     2  O   -0.271517
     3  C    0.397306
     4  O   -0.366620
     5  C   -0.364443
     6  C    0.080764
     7  C   -0.187417
     8  C   -0.155255
     9  C    0.031747
    10  Br  -0.116885
    11  C   -0.155593
    12  C   -0.188218
    13  H    0.156594
    14  H    0.161292
    15  H    0.160103
    16  H    0.192954
    17  H    0.171911
    18  H    0.189839
    19  H    0.182004
    20  H    0.180126
    21  H    0.168814
 Sum of Mulliken charges =   0.00000

 Dipole moment (field-independent basis, Debye):
    X=             -2.2319    Y=             -2.0012    Z=             -0.3543  Tot=              3.0185
 Quadrupole moment (field-independent basis, Debye-Ang):
   XX=            -81.6241   YY=            -80.6667   ZZ=            -80.5200
   XY=              5.6713   XZ=              4.4778   YZ=             -1.1943

 Normal termination of Gaussian 16 at Tue Sep 17 10:47:01 2024.
