 Gaussian 16, Revision C.02,

 ----------------------------------------------------------------------
 #p B3LYP/6-31G(d,p) EmpiricalDispersion=GD3BJ opt freq scf(xqc,tight)
 integral(grid=ultrafine)
 ----------------------------------------------------------------------

 ----------------------------------
 opt-freq conformers_unique/conf_ah
 ----------------------------------
 Symbolic Z-matrix:
 Charge =  0 Multiplicity = 1

 SCF Done:  E(RB3LYP) =  -3070.59016213     A.U. after   15 cycles
 SCF Done:  E(RB3LYP) =  -3070.59109017     A.U. after   12 cycles
 SCF Done:  E(RB3LYP) =  -3070.59074944     A.U. after   13 cycles
 SCF Done:  E(RB3LYP) =  -3070.59165441     A.U. after   11 cycles
 SCF Done:  E(RB3LYP) =  -3070.59176939     A.U. after   11 cycles
 SCF Done:  E(RB3LYP) =  -3070.59244004     A.U. after   14 cycles
 SCF Done:  E(RB3LYP) =  -3070.59268210     A.U. after   12 cycles
 SCF Done:  E(RB3LYP) =  -3070.59359007     A.U. after   14 cycles
 SCF Done:  E(RB3LYP) =  -3070.59432457     A.U. after   15 cycles
 SCF Done:  E(RB3LYP) =  -3070.59493986     A.U. after   12 cycles
 SCF Done:  E(RB3LYP) =  -3070.59594311     A.U. after   10 cycles
 SCF Done:  E(RB3LYP) =  -3070.59594364     A.U. after    8 cycles
 SCF Done:  E(RB3LYP) =  -3070.59594375     A.U. after    7 cycles
 SCF Done:  E(RB3LYP) =  -3070.59594386     A.U. after    8 cycles
 SCF Done:  E(RB3LYP) =  -3070.59594396     A.U. after    8 cycles
 SCF Done:  E(RB3LYP) =  -3070.59594403     A.U. after    8 cycles
 SCF Done:  E(RB3LYP) =  -3070.59594404     A.U. after    7 cycles
 Optimization completed.
    -- Stationary point found.
 Normal termination of Gaussian 16 at Tue Sep 17 09:47:17 2024.

 ----------------------------------------------------------------------
 #P Geom=AllCheck Guess=TCheck SCRF=Check GenChk RB3LYP/6-31G(d,p) Freq
 ----------------------------------------------------------------------

 Structure from the checkpoint file:  "smiles_00047_conf_7.chk"
 ----------------------------------
 opt-freq conformers_unique/conf_ah
 ----------------------------------
 Charge =  0 Multiplicity = 1

 SCF Done:  E(RB3LYP) =  -3070.59594404     A.U. after    1 cycles

                      1                      2                      3
                      A                      A                      A
 Frequencies --     17.6484                31.9187                62.9395
 Red. masses --      5.1472                 4.2163                 6.6754
 Frc consts  --      0.0009                 0.0025                 0.0156
 IR Inten    --      1.8398                 0.4251                 1.0963

                      4                      5                      6
                      A                      A                      A
 Frequencies --    112.6241               128.6568               183.2348
 Red. masses --      2.2409                 1.5470                 4.7244
 Frc consts  --      0.0167                 0.0151                 0.0935
 IR Inten    --      0.2011                 0.1730                 3.0234

                      7                      8                      9
                      A                      A                      A
 Frequencies --    203.3005               270.7848               291.6083
 Red. masses --      6.5190                 5.0656                 4.4751
 Frc consts  --      0.1587                 0.2188                 0.2242
 IR Inten    --      1.1838                 3.5550                11.2311

                     10                     11                     12
                      A                      A                      A
 Frequencies --    329.1596               351.4722               421.4863
 Red. masses --      5.0770                 4.8356                 2.6506
 Frc consts  --      0.3241                 0.3519                 0.2774
 IR Inten    --      4.7330                 6.2994                 4.0853

                     13                     14                     15
                      A                      A                      A
 Frequencies --    423.2369               505.0656               580.3001
 Red. masses --      2.7540                 3.0830                 5.8558
 Frc consts  --      0.2907                 0.4634                 1.1618
 IR Inten    --      1.8800                 9.2429                 7.8589

                     16                     17                     18
                      A                      A                      A
 Frequencies --    645.0358               665.2338               719.7215
 Red. masses --      6.4144                 4.5953                 4.1242
 Frc consts  --      1.5724                 1.1982                 1.2587
 IR Inten    --      1.7565                 8.0863                 2.6264

                     19                     20                     21
                      A                      A                      A
 Frequencies --    775.2824               825.3282               851.3276
 Red. masses --      4.8473                 1.8098                 1.3282
 Frc consts  --      1.7166                 0.7263                 0.5672
 IR Inten    --     24.6564                22.2949                 0.6160

                     22                     23                     24
                      A                      A                      A
 Frequencies --    856.1388               895.3401               961.2160
 Red. masses --      2.9525                 3.2585                 2.1248
 Frc consts  --      1.2751                 1.5390                 1.1567
 IR Inten    --     13.0440                 8.3839                 1.3730

                     25                     26                     27
                      A                      A                      A
 Frequencies --    972.7875               987.6928              1030.9125
 Red. masses --      1.4089                 1.3530                 4.8793
 Frc consts  --      0.7855                 0.7777                 3.0553
 IR Inten    --      0.3194                 0.2370                41.7978

                     28                     29                     30
                      A                      A                      A
 Frequencies --   1048.2120              1096.3612              1134.8401
 Red. masses --      4.8992                 2.5987                 1.4046
 Frc consts  --      3.1715                 1.8404                 1.0658
 IR Inten    --     34.1998                27.5259                12.6954

                     31                     32                     33
                      A                      A                      A
 Frequencies --   1166.7770              1179.5934              1211.5924
 Red. masses --      1.3907                 1.2817                 1.1527
 Frc consts  --      1.1154                 1.0508                 0.9969
 IR Inten    --    109.7328                 1.4301                 2.3871

                     34                     35                     36
                      A                      A                      A
 Frequencies --   1212.2030              1221.2156              1292.8782
 Red. masses --      1.4360                 2.7157                 2.0191
 Frc consts  --      1.2432                 2.3862                 1.9885
 IR Inten    --      2.8680                 6.0313               169.8809

                     37                     38                     39
                      A                      A                      A
 Frequencies --   1325.7550              1334.8760              1367.4254
 Red. masses --      2.4208                 1.8284                 2.4086
 Frc consts  --      2.5069                 1.9196                 2.6535
 IR Inten    --    120.0340                 2.5230                71.8903

                     40                     41                     42
                      A                      A                      A
 Frequencies --   1449.4641              1480.5060              1488.8912
 Red. masses --      2.5769                 1.2002                 1.1310
 Frc consts  --      3.1898                 1.5500                 1.4772
 IR Inten    --     13.8828                10.4796                15.6035

                     43                     44                     45
                      A                      A                      A
 Frequencies --   1496.0292              1509.2559              1533.0216
 Red. masses --      1.0465                 1.0505                 2.3189
 Frc consts  --      1.3800                 1.4099                 3.2109
 IR Inten    --      6.5977                 8.0482                60.1297

                     46                     47                     48
                      A                      A                      A
 Frequencies --   1629.9600              1651.2619              1821.4643
 Red. masses --      6.8887                 5.7099                10.9225
 Frc consts  --     10.7830                 9.1730                21.3508
 IR Inten    --      0.5459                 5.3164               186.9781

                     49                     50                     51
                      A                      A                      A
 Frequencies --   3067.5270              3075.9228              3139.8550
 Red. masses --      1.0297                 1.0611                 1.1040
 Frc consts  --      5.7089                 5.9151                 6.4125
 IR Inten    --     30.0383                10.6320                 5.7649

                     52                     53                     54
                      A                      A                      A
 Frequencies --   3146.0091              3179.2091              3188.6619
 Red. masses --      1.1071                 1.1072                 1.0895
 Frc consts  --      6.4556                 6.5938                 6.5269
 IR Inten    --     19.8839                14.8824                 9.8890

                     55                     56                     57
                      A                      A                      A
 Frequencies --   3203.6757              3221.8472              3223.4738
 Red. masses --      1.0891                 1.0937                 1.0948
 Frc consts  --      6.5860                 6.6887                 6.7028
 IR Inten    --      0.7921                 4.1143                 0.3744

 - Thermochemistry -
 -------------------
 Temperature   298.150 Kelvin.  Pressure   1.00000 Atm.
 Atom     1 has atomic number  6 and mass  12.00000

 Molecular mass:   227.97859 amu.
 Principal axes and moments of inertia in atomic units:
                           1         2         3
     Eigenvalues --   905.805757692.524087778.51366
           X            0.99989  -0.00252  -0.01452
           Y            0.00285   0.99973   0.02292
           Z            0.01446  -0.02296   0.99963
 This molecule is an asymmetric top.
 Rotational symmetry number  1.
 Warning -- assumption of classical behavior for rotation
           may cause significant error
 Rotational temperatures (Kelvin)      0.09562     0.01126     0.01114
 Rotational constants (GHZ):           1.99242     0.23461     0.23202
 Zero-point vibrational energy     425853.9 (Joules/Mol)
                                  101.78153 (Kcal/Mol)
 Warning -- explicit consideration of  15 degrees of freedom as
           vibrations may cause significant error
 Vibrational temperatures:     25.39    45.92    90.56   162.04   185.11
          (Kelvin)            263.63   292.50   389.60   419.56   473.59
                              505.69   606.42   608.94   726.68   834.92
                              928.06   957.12  1035.52  1115.46  1187.46
                             1224.87  1231.79  1288.19  1382.98  1399.62
                             1421.07  1483.25  1508.14  1577.42  1632.78
                             1678.73  1697.17  1743.21  1744.09  1757.06
                             1860.16  1907.47  1920.59  1967.42  2085.46
                             2130.12  2142.18  2152.45  2171.48  2205.68
                             2345.15  2375.80  2620.68  4413.49  4425.57
                             4517.55  4526.41  4574.17  4587.77  4609.37
                             4635.52  4637.86

 Zero-point correction=                           0.162199 (Hartree/Particle)
 Thermal correction to Energy=                    0.173858
 Thermal correction to Enthalpy=                  0.174802
 Thermal correction to Gibbs Free Energy=         0.120950
 Sum of electronic and zero-point Energies=          -3070.433745
 Sum of electronic and thermal Energies=             -3070.422086
 Sum of electronic and thermal Enthalpies=           -3070.421142
 Sum of electronic and thermal Free Energies=        -3070.474994

                     E (Thermal)             CV                S
                      KCal/Mol        Cal/Mol-Kelvin    Cal/Mol-Kelvin
 Total                  109.098             41.369            113.342
 Electronic               0.000              0.000              0.000
 Translational            0.889              2.981             42.174
 Rotational               0.889              2.981             32.361
 Vibrational            107.320             35.407             38.807
 Vibration     1          0.593              1.986              6.883
 Vibration     2          0.594              1.983              5.706
 Vibration     3          0.597              1.972              4.363
 Vibration     4          0.607              1.939              3.223
 Vibration     5          0.611              1.925              2.966
 Vibration     6          0.631              1.863              2.295
 Vibration     7          0.639              1.835              2.103
 Vibration     8          0.674              1.727              1.591
 Vibration     9          0.687              1.689              1.465
 Vibration    10          0.712              1.617              1.264
 Vibration    11          0.728              1.572              1.160
 Vibration    12          0.784              1.424              0.887
 Vibration    13          0.785              1.420              0.881
 Vibration    14          0.860              1.239              0.646
 Vibration    15          0.937              1.074              0.485

 Optimization completed.
    -- Stationary point found.
 Normal termination of Gaussian 16 at Tue Sep 17 09:48:59 2024.

 ----------------------------------------------------------------------
 #p M062X/def2tzvp geom=check guess=read scf(xqc,tight) integral(grid=u
 ltrafine) scrf(SMD, solvent=1,4-Dioxane) polar prop=efg volume
 ----------------------------------------------------------------------

 ---
 spe
 ---
 Structure from the checkpoint file:  "smiles_00047_conf_7.chk"
 Charge =  0 Multiplicity = 1

 SCF Done:  E(RM062X) =  -3073.02464014     A.U. after   11 cycles

  Exact polarizability:     197.100       4.357     139.083      12.314      -6.681     105.748
 Approx polarizability:     189.403       4.090     170.863      16.445     -10.514     122.141

 Normal termination of Gaussian 16 at Tue Sep 17 10:28:08 2024.
 Gaussian 16:  ES64L-G16RevC.02  7-Dec-2021

 ----------------------------------------------------------------------
 #p M062X/def2tzvp geom=check guess=read scf(xqc,tight) integral(grid=u
 ltrafine) scrf(SMD, solvent=1,4-Dioxane) nmr=giao
 ----------------------------------------------------------------------

 ---
 spe
 ---
 Structure from the checkpoint file:  "smiles_00047_conf_7.chk"
 Charge =  0 Multiplicity = 1

                         Standard orientation:
 ---------------------------------------------------------------------
 Center     Atomic      Atomic             Coordinates (Angstroms)
 Number     Number       Type             X           Y           Z
 ---------------------------------------------------------------------
      1          6           0        4.615068   -0.172867   -1.650713
      2          8           0        3.809357    0.554946   -0.707158
      3          6           0        3.303679   -0.183849    0.300359
      4          8           0        3.512808   -1.370036    0.439188
      5          6           0        2.404178    0.645346    1.198115
      6          6           0        0.948709    0.447778    0.815745
      7          6           0        0.168947    1.524535    0.386915
      8          6           0       -1.169006    1.346733    0.034420
      9          6           0       -1.722110    0.072390    0.109744
     10         35           0       -3.554131   -0.185410   -0.369579
     11          6           0       -0.964271   -1.020142    0.527245
     12          6           0        0.369120   -0.825685    0.877658
     13          1           0        4.027072   -0.962541   -2.123967
     14          1           0        5.475309   -0.624446   -1.151502
     15          1           0        4.938802    0.560684   -2.387940
     16          1           0        2.575109    0.306915    2.224390
     17          1           0        2.676738    1.699470    1.124432
     18          1           0        0.607027    2.516486    0.326844
     19          1           0       -1.771641    2.184705   -0.295321
     20          1           0       -1.411612   -2.005885    0.576062
     21          1           0        0.974580   -1.670740    1.189080
 ---------------------------------------------------------------------

 SCF Done:  E(RM062X) =  -3073.02464014     A.U. after    1 cycles

      1  C    Isotropic =   130.4459   Anisotropy =    74.3471

      2  O    Isotropic =   120.3879   Anisotropy =   180.3591

      3  C    Isotropic =    -9.9019   Anisotropy =   122.0047

      4  O    Isotropic =  -151.4196   Anisotropy =   676.8292

      5  C    Isotropic =   139.9344   Anisotropy =    21.8473

      6  C    Isotropic =    26.8406   Anisotropy =   220.5368

      7  C    Isotropic =    32.3517   Anisotropy =   187.7162

      8  C    Isotropic =    31.4675   Anisotropy =   184.2309

      9  C    Isotropic =    25.7233   Anisotropy =   141.3913

     10  Br   Isotropic =  2088.3896   Anisotropy =  1285.5083

     11  C    Isotropic =    30.8235   Anisotropy =   185.3369

     12  C    Isotropic =    32.5023   Anisotropy =   210.3602

     13  H    Isotropic =    28.4091   Anisotropy =     7.6715

     14  H    Isotropic =    28.1287   Anisotropy =     8.5657

     15  H    Isotropic =    28.3484   Anisotropy =     7.8548

     16  H    Isotropic =    28.1637   Anisotropy =     5.5047

     17  H    Isotropic =    28.3346   Anisotropy =     4.0662

     18  H    Isotropic =    23.8376   Anisotropy =     7.8332

     19  H    Isotropic =    23.7228   Anisotropy =    10.2469

     20  H    Isotropic =    23.6366   Anisotropy =    10.5730

     21  H    Isotropic =    23.2544   Anisotropy =     9.3578

 The electronic state is 1-A.
 Alpha  occ. eigenvalues -- -485.37515 -63.35996 -57.17940 -57.17705 -57.17699
 Alpha  occ. eigenvalues --  -19.67753 -19.62171 -10.67879 -10.60403 -10.58871
 Alpha  occ. eigenvalues --  -10.56743 -10.55947 -10.55798 -10.55745 -10.55545
 Alpha  occ. eigenvalues --  -10.55272  -9.02641  -6.85045  -6.84175  -6.84156
 Alpha  occ. eigenvalues --   -2.88421  -2.88106  -2.88083  -2.87273  -2.87272
 Alpha  occ. eigenvalues --   -1.23634  -1.14383  -0.98518  -0.91844  -0.87002
 Alpha  occ. eigenvalues --   -0.85707  -0.82224  -0.77616  -0.70805  -0.67580
 Alpha  occ. eigenvalues --   -0.65270  -0.59609  -0.58490  -0.57204  -0.55701
 Alpha  occ. eigenvalues --   -0.54397  -0.53249  -0.50182  -0.49533  -0.48448
 Alpha  occ. eigenvalues --   -0.47260  -0.45534  -0.44844  -0.43575  -0.41802
 Alpha  occ. eigenvalues --   -0.40885  -0.38186  -0.37839  -0.35891  -0.35163
 Alpha  occ. eigenvalues --   -0.32180  -0.29512
 Alpha virt. eigenvalues --    0.00275   0.00692   0.03583   0.04905   0.07720
 Alpha virt. eigenvalues --    0.09766   0.10464   0.10877   0.12310   0.13347
 Alpha virt. eigenvalues --    0.14136   0.14469   0.15516   0.16185   0.16540

 Mulliken charges:
               1
     1  C   -0.267495
     2  O   -0.271497
     3  C    0.397304
     4  O   -0.366653
     5  C   -0.364460
     6  C    0.080755
     7  C   -0.188212
     8  C   -0.155582
     9  C    0.031738
    10  Br  -0.116880
    11  C   -0.155249
    12  C   -0.187427
    13  H    0.161294
    14  H    0.160109
    15  H    0.156594
    16  H    0.192954
    17  H    0.171927
    18  H    0.168813
    19  H    0.180126
    20  H    0.182004
    21  H    0.189837
 Sum of Mulliken charges =  -0.00000

 Dipole moment (field-independent basis, Debye):
    X=              2.2311    Y=              2.0012    Z=             -0.3552  Tot=              3.0181
 Quadrupole moment (field-independent basis, Debye-Ang):
   XX=            -81.6302   YY=            -80.6657   ZZ=            -80.5184
   XY=              5.6726   XZ=             -4.4806   YZ=              1.1952

 Normal termination of Gaussian 16 at Tue Sep 17 10:43:18 2024.
