 Gaussian 16, Revision C.02,

 ----------------------------------------------------------------------
 #p B3LYP/6-31G(d,p) EmpiricalDispersion=GD3BJ opt freq scf(xqc,tight)
 integral(grid=ultrafine)
 ----------------------------------------------------------------------

 ----------------------------------
 opt-freq conformers_unique/conf_ag
 ----------------------------------
 Symbolic Z-matrix:
 Charge =  0 Multiplicity = 1

 SCF Done:  E(RB3LYP) =  -3070.59195558     A.U. after   15 cycles
 SCF Done:  E(RB3LYP) =  -3070.59335157     A.U. after   12 cycles
 SCF Done:  E(RB3LYP) =  -3070.59345035     A.U. after   10 cycles
 SCF Done:  E(RB3LYP) =  -3070.59349297     A.U. after   11 cycles
 SCF Done:  E(RB3LYP) =  -3070.59351694     A.U. after   11 cycles
 SCF Done:  E(RB3LYP) =  -3070.59359941     A.U. after   11 cycles
 SCF Done:  E(RB3LYP) =  -3070.52077284     A.U. after   13 cycles
 SCF Done:  E(RB3LYP) =  -3070.59363689     A.U. after   12 cycles
 SCF Done:  E(RB3LYP) =  -3070.59381413     A.U. after   13 cycles
 SCF Done:  E(RB3LYP) =  -3070.59396124     A.U. after   12 cycles
 SCF Done:  E(RB3LYP) =  -3070.59587717     A.U. after   11 cycles
 SCF Done:  E(RB3LYP) =  -3070.59593394     A.U. after   13 cycles
 SCF Done:  E(RB3LYP) =  -3070.59592132     A.U. after   13 cycles
 SCF Done:  E(RB3LYP) =  -3070.59594357     A.U. after   13 cycles
 SCF Done:  E(RB3LYP) =  -3070.59594375     A.U. after   10 cycles
 SCF Done:  E(RB3LYP) =  -3070.59594402     A.U. after   10 cycles
 SCF Done:  E(RB3LYP) =  -3070.59594404     A.U. after    8 cycles
 Optimization completed.
    -- Stationary point found.
 Normal termination of Gaussian 16 at Tue Sep 17 09:51:14 2024.

 ----------------------------------------------------------------------
 #P Geom=AllCheck Guess=TCheck SCRF=Check GenChk RB3LYP/6-31G(d,p) Freq
 ----------------------------------------------------------------------

 Structure from the checkpoint file:  "smiles_00047_conf_6.chk"
 ----------------------------------
 opt-freq conformers_unique/conf_ag
 ----------------------------------
 Charge =  0 Multiplicity = 1

 SCF Done:  E(RB3LYP) =  -3070.59594404     A.U. after    1 cycles

                      1                      2                      3
                      A                      A                      A
 Frequencies --     17.7028                31.9331                62.9620
 Red. masses --      5.1477                 4.2172                 6.6718
 Frc consts  --      0.0010                 0.0025                 0.0156
 IR Inten    --      1.8393                 0.4255                 1.0974

                      4                      5                      6
                      A                      A                      A
 Frequencies --    112.6088               128.6648               183.2336
 Red. masses --      2.2389                 1.5480                 4.7240
 Frc consts  --      0.0167                 0.0151                 0.0934
 IR Inten    --      0.2013                 0.1728                 3.0230

                      7                      8                      9
                      A                      A                      A
 Frequencies --    203.3084               270.7737               291.6119
 Red. masses --      6.5193                 5.0659                 4.4741
 Frc consts  --      0.1588                 0.2188                 0.2242
 IR Inten    --      1.1838                 3.5546                11.2362

                     10                     11                     12
                      A                      A                      A
 Frequencies --    329.1571               351.4798               421.4809
 Red. masses --      5.0771                 4.8369                 2.6485
 Frc consts  --      0.3241                 0.3521                 0.2772
 IR Inten    --      4.7313                 6.3012                 4.1091

                     13                     14                     15
                      A                      A                      A
 Frequencies --    423.2338               505.0628               580.3026
 Red. masses --      2.7566                 3.0830                 5.8549
 Frc consts  --      0.2909                 0.4634                 1.1617
 IR Inten    --      1.8526                 9.2417                 7.8640

                     16                     17                     18
                      A                      A                      A
 Frequencies --    645.0327               665.2379               719.7232
 Red. masses --      6.4142                 4.5955                 4.1240
 Frc consts  --      1.5724                 1.1982                 1.2586
 IR Inten    --      1.7575                 8.0827                 2.6247

                     19                     20                     21
                      A                      A                      A
 Frequencies --    775.2764               825.3318               851.3413
 Red. masses --      4.8484                 1.8096                 1.3292
 Frc consts  --      1.7170                 0.7263                 0.5676
 IR Inten    --     24.6507                22.2951                 0.6145

                     22                     23                     24
                      A                      A                      A
 Frequencies --    856.1243               895.3535               961.2186
 Red. masses --      2.9475                 3.2588                 2.1244
 Frc consts  --      1.2728                 1.5392                 1.1565
 IR Inten    --     13.0643                 8.3814                 1.3763

                     25                     26                     27
                      A                      A                      A
 Frequencies --    972.7975               987.7115              1030.9139
 Red. masses --      1.4090                 1.3531                 4.8795
 Frc consts  --      0.7856                 0.7777                 3.0554
 IR Inten    --      0.3203                 0.2372                41.8086

                     28                     29                     30
                      A                      A                      A
 Frequencies --   1048.2457              1096.3643              1134.8479
 Red. masses --      4.8989                 2.5987                 1.4046
 Frc consts  --      3.1716                 1.8404                 1.0658
 IR Inten    --     34.1725                27.5234                12.6910

                     31                     32                     33
                      A                      A                      A
 Frequencies --   1166.7788              1179.6079              1211.5958
 Red. masses --      1.3909                 1.2818                 1.1528
 Frc consts  --      1.1156                 1.0508                 0.9971
 IR Inten    --    109.8084                 1.4341                 2.3956

                     34                     35                     36
                      A                      A                      A
 Frequencies --   1212.2043              1221.2139              1292.8452
 Red. masses --      1.4357                 2.7154                 2.0191
 Frc consts  --      1.2430                 2.3860                 1.9884
 IR Inten    --      2.8636                 6.0154               169.9445

                     37                     38                     39
                      A                      A                      A
 Frequencies --   1325.7497              1334.8760              1367.4308
 Red. masses --      2.4218                 1.8283                 2.4077
 Frc consts  --      2.5079                 1.9195                 2.6526
 IR Inten    --    119.9797                 2.5085                71.9260

                     40                     41                     42
                      A                      A                      A
 Frequencies --   1449.4689              1480.5151              1488.8919
 Red. masses --      2.5768                 1.2001                 1.1311
 Frc consts  --      3.1897                 1.5499                 1.4773
 IR Inten    --     13.8821                10.4591                15.6104

                     43                     44                     45
                      A                      A                      A
 Frequencies --   1496.0407              1509.2563              1533.0242
 Red. masses --      1.0465                 1.0505                 2.3189
 Frc consts  --      1.3800                 1.4099                 3.2109
 IR Inten    --      6.5964                 8.0516                60.1459

                     46                     47                     48
                      A                      A                      A
 Frequencies --   1629.9554              1651.2570              1821.4825
 Red. masses --      6.8888                 5.7096                10.9229
 Frc consts  --     10.7831                 9.1725                21.3519
 IR Inten    --      0.5387                 5.3182               186.9501

                     49                     50                     51
                      A                      A                      A
 Frequencies --   3067.5163              3075.9095              3139.8627
 Red. masses --      1.0297                 1.0611                 1.1040
 Frc consts  --      5.7088                 5.9151                 6.4125
 IR Inten    --     30.0475                10.6289                 5.7653

                     52                     53                     54
                      A                      A                      A
 Frequencies --   3145.9997              3179.1736              3188.6519
 Red. masses --      1.1071                 1.1072                 1.0895
 Frc consts  --      6.4556                 6.5936                 6.5269
 IR Inten    --     19.8795                14.8877                 9.8900

                     55                     56                     57
                      A                      A                      A
 Frequencies --   3203.6664              3221.8385              3223.4664
 Red. masses --      1.0891                 1.0937                 1.0948
 Frc consts  --      6.5859                 6.6887                 6.7027
 IR Inten    --      0.7891                 4.1130                 0.3755

 - Thermochemistry -
 -------------------
 Temperature   298.150 Kelvin.  Pressure   1.00000 Atm.
 Atom     1 has atomic number  6 and mass  12.00000

 Molecular mass:   227.97859 amu.
 Principal axes and moments of inertia in atomic units:
                           1         2         3
     Eigenvalues --   905.701167692.829857779.00916
           X            0.99989   0.00253   0.01452
           Y           -0.00286   0.99973   0.02291
           Z           -0.01446  -0.02295   0.99963
 This molecule is an asymmetric top.
 Rotational symmetry number  1.
 Warning -- assumption of classical behavior for rotation
           may cause significant error
 Rotational temperatures (Kelvin)      0.09563     0.01126     0.01113
 Rotational constants (GHZ):           1.99265     0.23460     0.23200
 Zero-point vibrational energy     425854.5 (Joules/Mol)
                                  101.78167 (Kcal/Mol)
 Warning -- explicit consideration of  15 degrees of freedom as
           vibrations may cause significant error
 Vibrational temperatures:     25.47    45.94    90.59   162.02   185.12
          (Kelvin)            263.63   292.52   389.58   419.56   473.58
                              505.70   606.42   608.94   726.67   834.93
                              928.06   957.13  1035.52  1115.45  1187.47
                             1224.89  1231.77  1288.21  1382.98  1399.64
                             1421.10  1483.26  1508.19  1577.42  1632.79
                             1678.73  1697.19  1743.22  1744.09  1757.05
                             1860.12  1907.46  1920.59  1967.43  2085.46
                             2130.13  2142.18  2152.47  2171.48  2205.68
                             2345.14  2375.79  2620.71  4413.47  4425.55
                             4517.56  4526.39  4574.12  4587.76  4609.36
                             4635.51  4637.85

 Zero-point correction=                           0.162199 (Hartree/Particle)
 Thermal correction to Energy=                    0.173858
 Thermal correction to Enthalpy=                  0.174802
 Thermal correction to Gibbs Free Energy=         0.120954
 Sum of electronic and zero-point Energies=          -3070.433745
 Sum of electronic and thermal Energies=             -3070.422086
 Sum of electronic and thermal Enthalpies=           -3070.421142
 Sum of electronic and thermal Free Energies=        -3070.474990

                     E (Thermal)             CV                S
                      KCal/Mol        Cal/Mol-Kelvin    Cal/Mol-Kelvin
 Total                  109.098             41.369            113.335
 Electronic               0.000              0.000              0.000
 Translational            0.889              2.981             42.174
 Rotational               0.889              2.981             32.361
 Vibrational            107.320             35.407             38.799
 Vibration     1          0.593              1.986              6.876
 Vibration     2          0.594              1.983              5.706
 Vibration     3          0.597              1.972              4.362
 Vibration     4          0.607              1.939              3.223
 Vibration     5          0.611              1.925              2.966
 Vibration     6          0.631              1.863              2.295
 Vibration     7          0.639              1.835              2.103
 Vibration     8          0.674              1.727              1.591
 Vibration     9          0.687              1.689              1.465
 Vibration    10          0.712              1.617              1.264
 Vibration    11          0.728              1.572              1.160
 Vibration    12          0.784              1.424              0.887
 Vibration    13          0.785              1.420              0.881
 Vibration    14          0.860              1.239              0.646
 Vibration    15          0.937              1.074              0.485

 Optimization completed.
    -- Stationary point found.
 Normal termination of Gaussian 16 at Tue Sep 17 09:52:56 2024.

 ----------------------------------------------------------------------
 #p M062X/def2tzvp geom=check guess=read scf(xqc,tight) integral(grid=u
 ltrafine) scrf(SMD, solvent=1,4-Dioxane) polar prop=efg volume
 ----------------------------------------------------------------------

 ---
 spe
 ---
 Structure from the checkpoint file:  "smiles_00047_conf_6.chk"
 Charge =  0 Multiplicity = 1

 SCF Done:  E(RM062X) =  -3073.02463940     A.U. after   11 cycles

  Exact polarizability:     197.106      -4.368     139.074     -12.306      -6.704     105.753
 Approx polarizability:     189.406      -4.106     170.847     -16.438     -10.550     122.154

 Normal termination of Gaussian 16 at Tue Sep 17 10:32:38 2024.
 Gaussian 16:  ES64L-G16RevC.02  7-Dec-2021

 ----------------------------------------------------------------------
 #p M062X/def2tzvp geom=check guess=read scf(xqc,tight) integral(grid=u
 ltrafine) scrf(SMD, solvent=1,4-Dioxane) nmr=giao
 ----------------------------------------------------------------------

 ---
 spe
 ---
 Structure from the checkpoint file:  "smiles_00047_conf_6.chk"
 Charge =  0 Multiplicity = 1

                         Standard orientation:
 ---------------------------------------------------------------------
 Center     Atomic      Atomic             Coordinates (Angstroms)
 Number     Number       Type             X           Y           Z
 ---------------------------------------------------------------------
      1          6           0       -4.615515   -0.174566   -1.650247
      2          8           0       -3.809747    0.554243   -0.707536
      3          6           0       -3.303677   -0.183541    0.300542
      4          8           0       -3.512556   -1.369634    0.440516
      5          6           0       -2.404131    0.646648    1.197330
      6          6           0       -0.948660    0.448619    0.815170
      7          6           0       -0.168770    1.525004    0.385580
      8          6           0        1.169174    1.346823    0.033313
      9          6           0        1.722171    0.072471    0.109637
     10         35           0        3.554208   -0.185797   -0.369368
     11          6           0        0.964217   -1.019670    0.527892
     12          6           0       -0.369198   -0.824832    0.878073
     13          1           0       -4.027397   -0.964373   -2.123119
     14          1           0       -4.939820    0.558296   -2.387912
     15          1           0       -5.475428   -0.626083   -1.150403
     16          1           0       -2.676659    1.700696    1.122474
     17          1           0       -2.575027    0.309375    2.223994
     18          1           0       -0.606783    2.516939    0.324741
     19          1           0        1.771926    2.184476   -0.297026
     20          1           0        1.411441   -2.005429    0.577483
     21          1           0       -0.974752   -1.669612    1.190067
 ---------------------------------------------------------------------

 SCF Done:  E(RM062X) =  -3073.02463940     A.U. after    1 cycles

      1  C    Isotropic =   130.4485   Anisotropy =    74.3459

      2  O    Isotropic =   120.3814   Anisotropy =   180.3730

      3  C    Isotropic =    -9.9036   Anisotropy =   122.0028

      4  O    Isotropic =  -151.4222   Anisotropy =   676.8475

      5  C    Isotropic =   139.9359   Anisotropy =    21.8503

      6  C    Isotropic =    26.8430   Anisotropy =   220.5376

      7  C    Isotropic =    32.3530   Anisotropy =   187.7149

      8  C    Isotropic =    31.4652   Anisotropy =   184.2253

      9  C    Isotropic =    25.7240   Anisotropy =   141.3926

     10  Br   Isotropic =  2088.3985   Anisotropy =  1285.4972

     11  C    Isotropic =    30.8257   Anisotropy =   185.3427

     12  C    Isotropic =    32.5029   Anisotropy =   210.3688

     13  H    Isotropic =    28.4095   Anisotropy =     7.6723

     14  H    Isotropic =    28.3483   Anisotropy =     7.8551

     15  H    Isotropic =    28.1283   Anisotropy =     8.5647

     16  H    Isotropic =    28.3345   Anisotropy =     4.0661

     17  H    Isotropic =    28.1637   Anisotropy =     5.5052

     18  H    Isotropic =    23.8378   Anisotropy =     7.8331

     19  H    Isotropic =    23.7227   Anisotropy =    10.2473

     20  H    Isotropic =    23.6366   Anisotropy =    10.5727

     21  H    Isotropic =    23.2538   Anisotropy =     9.3591

 The electronic state is 1-A.
 Alpha  occ. eigenvalues -- -485.37515 -63.35996 -57.17939 -57.17705 -57.17699
 Alpha  occ. eigenvalues --  -19.67753 -19.62171 -10.67879 -10.60403 -10.58871
 Alpha  occ. eigenvalues --  -10.56743 -10.55947 -10.55798 -10.55745 -10.55545
 Alpha  occ. eigenvalues --  -10.55272  -9.02641  -6.85045  -6.84175  -6.84156
 Alpha  occ. eigenvalues --   -2.88421  -2.88106  -2.88082  -2.87272  -2.87272
 Alpha  occ. eigenvalues --   -1.23634  -1.14384  -0.98518  -0.91844  -0.87002
 Alpha  occ. eigenvalues --   -0.85707  -0.82224  -0.77615  -0.70805  -0.67579
 Alpha  occ. eigenvalues --   -0.65270  -0.59609  -0.58490  -0.57204  -0.55701
 Alpha  occ. eigenvalues --   -0.54396  -0.53249  -0.50182  -0.49533  -0.48448
 Alpha  occ. eigenvalues --   -0.47260  -0.45534  -0.44843  -0.43575  -0.41802
 Alpha  occ. eigenvalues --   -0.40885  -0.38186  -0.37838  -0.35891  -0.35163
 Alpha  occ. eigenvalues --   -0.32180  -0.29512
 Alpha virt. eigenvalues --    0.00275   0.00692   0.03584   0.04905   0.07720
 Alpha virt. eigenvalues --    0.09766   0.10464   0.10877   0.12311   0.13347
 Alpha virt. eigenvalues --    0.14137   0.14469   0.15516   0.16185   0.16541

 Mulliken charges:
               1
     1  C   -0.267498
     2  O   -0.271504
     3  C    0.397302
     4  O   -0.366651
     5  C   -0.364380
     6  C    0.080723
     7  C   -0.188225
     8  C   -0.155588
     9  C    0.031734
    10  Br  -0.116884
    11  C   -0.155253
    12  C   -0.187417
    13  H    0.161292
    14  H    0.156597
    15  H    0.160105
    16  H    0.171911
    17  H    0.192941
    18  H    0.168814
    19  H    0.180127
    20  H    0.182004
    21  H    0.189848
 Sum of Mulliken charges =  -0.00000

 Dipole moment (field-independent basis, Debye):
    X=             -2.2317    Y=              2.0009    Z=             -0.3569  Tot=              3.0185
 Quadrupole moment (field-independent basis, Debye-Ang):
   XX=            -81.6257   YY=            -80.6627   ZZ=            -80.5229
   XY=             -5.6659   XZ=              4.4855   YZ=              1.1974

 Normal termination of Gaussian 16 at Tue Sep 17 10:48:26 2024.
