 Gaussian 16, Revision C.02,

 ----------------------------------------------------------------------
 #p B3LYP/6-31G(d,p) EmpiricalDispersion=GD3BJ opt freq scf(xqc,tight)
 integral(grid=ultrafine)
 ----------------------------------------------------------------------

 ----------------------------------
 opt-freq conformers_unique/conf_ab
 ----------------------------------
 Symbolic Z-matrix:
 Charge =  0 Multiplicity = 1

 SCF Done:  E(RB3LYP) =  -3070.59336589     A.U. after   15 cycles
 SCF Done:  E(RB3LYP) =  -3070.59469367     A.U. after   12 cycles
 SCF Done:  E(RB3LYP) =  -3070.59399733     A.U. after   13 cycles
 SCF Done:  E(RB3LYP) =  -3070.59509283     A.U. after   11 cycles
 SCF Done:  E(RB3LYP) =  -3070.59520489     A.U. after   11 cycles
 SCF Done:  E(RB3LYP) =  -3070.59559025     A.U. after   14 cycles
 SCF Done:  E(RB3LYP) =  -3070.59575289     A.U. after   11 cycles
 SCF Done:  E(RB3LYP) =  -3070.59584019     A.U. after   11 cycles
 SCF Done:  E(RB3LYP) =  -3070.59584176     A.U. after   12 cycles
 SCF Done:  E(RB3LYP) =  -3070.59581277     A.U. after   12 cycles
 SCF Done:  E(RB3LYP) =  -3070.59593185     A.U. after   12 cycles
 SCF Done:  E(RB3LYP) =  -3070.59594141     A.U. after   10 cycles
 SCF Done:  E(RB3LYP) =  -3070.59594256     A.U. after   10 cycles
 SCF Done:  E(RB3LYP) =  -3070.59594373     A.U. after   11 cycles
 SCF Done:  E(RB3LYP) =  -3070.59594402     A.U. after    8 cycles
 SCF Done:  E(RB3LYP) =  -3070.59594404     A.U. after    7 cycles
 SCF Done:  E(RB3LYP) =  -3070.59594404     A.U. after    7 cycles
 Optimization completed.
    -- Stationary point found.
 Normal termination of Gaussian 16 at Tue Sep 17 09:46:18 2024.

 ----------------------------------------------------------------------
 #P Geom=AllCheck Guess=TCheck SCRF=Check GenChk RB3LYP/6-31G(d,p) Freq
 ----------------------------------------------------------------------

 Structure from the checkpoint file:  "smiles_00047_conf_1.chk"
 ----------------------------------
 opt-freq conformers_unique/conf_ab
 ----------------------------------
 Charge =  0 Multiplicity = 1

 SCF Done:  E(RB3LYP) =  -3070.59594404     A.U. after    1 cycles

                      1                      2                      3
                      A                      A                      A
 Frequencies --     17.6786                31.9358                62.9524
 Red. masses --      5.1480                 4.2170                 6.6734
 Frc consts  --      0.0009                 0.0025                 0.0156
 IR Inten    --      1.8391                 0.4255                 1.0972

                      4                      5                      6
                      A                      A                      A
 Frequencies --    112.6058               128.6621               183.2245
 Red. masses --      2.2400                 1.5473                 4.7242
 Frc consts  --      0.0167                 0.0151                 0.0934
 IR Inten    --      0.2014                 0.1727                 3.0236

                      7                      8                      9
                      A                      A                      A
 Frequencies --    203.3032               270.7726               291.6054
 Red. masses --      6.5192                 5.0646                 4.4751
 Frc consts  --      0.1588                 0.2188                 0.2242
 IR Inten    --      1.1836                 3.5571                11.2337

                     10                     11                     12
                      A                      A                      A
 Frequencies --    329.1547               351.4743               421.4809
 Red. masses --      5.0772                 4.8370                 2.6484
 Frc consts  --      0.3241                 0.3521                 0.2772
 IR Inten    --      4.7311                 6.3005                 4.1086

                     13                     14                     15
                      A                      A                      A
 Frequencies --    423.2348               505.0645               580.2981
 Red. masses --      2.7565                 3.0831                 5.8550
 Frc consts  --      0.2909                 0.4634                 1.1617
 IR Inten    --      1.8528                 9.2419                 7.8631

                     16                     17                     18
                      A                      A                      A
 Frequencies --    645.0336               665.2333               719.7231
 Red. masses --      6.4142                 4.5956                 4.1241
 Frc consts  --      1.5724                 1.1982                 1.2587
 IR Inten    --      1.7572                 8.0825                 2.6249

                     19                     20                     21
                      A                      A                      A
 Frequencies --    775.2770               825.3330               851.3382
 Red. masses --      4.8481                 1.8097                 1.3289
 Frc consts  --      1.7169                 0.7263                 0.5675
 IR Inten    --     24.6532                22.2940                 0.6145

                     22                     23                     24
                      A                      A                      A
 Frequencies --    856.1288               895.3534               961.2119
 Red. masses --      2.9489                 3.2588                 2.1247
 Frc consts  --      1.2735                 1.5392                 1.1566
 IR Inten    --     13.0566                 8.3826                 1.3765

                     25                     26                     27
                      A                      A                      A
 Frequencies --    972.7959               987.7073              1030.9125
 Red. masses --      1.4089                 1.3530                 4.8793
 Frc consts  --      0.7856                 0.7777                 3.0553
 IR Inten    --      0.3203                 0.2368                41.8047

                     28                     29                     30
                      A                      A                      A
 Frequencies --   1048.2576              1096.3644              1134.8464
 Red. masses --      4.8986                 2.5988                 1.4046
 Frc consts  --      3.1715                 1.8405                 1.0658
 IR Inten    --     34.1542                27.5255                12.6893

                     31                     32                     33
                      A                      A                      A
 Frequencies --   1166.7851              1179.6152              1211.5958
 Red. masses --      1.3909                 1.2818                 1.1523
 Frc consts  --      1.1156                 1.0508                 0.9966
 IR Inten    --    109.7949                 1.4343                 2.3793

                     34                     35                     36
                      A                      A                      A
 Frequencies --   1212.2102              1221.2205              1292.8610
 Red. masses --      1.4366                 2.7153                 2.0194
 Frc consts  --      1.2437                 2.3859                 1.9887
 IR Inten    --      2.8779                 6.0224               169.9651

                     37                     38                     39
                      A                      A                      A
 Frequencies --   1325.7496              1334.8746              1367.4284
 Red. masses --      2.4221                 1.8281                 2.4078
 Frc consts  --      2.5082                 1.9192                 2.6526
 IR Inten    --    119.9818                 2.5038                71.9248

                     40                     41                     42
                      A                      A                      A
 Frequencies --   1449.4650              1480.5169              1488.8914
 Red. masses --      2.5768                 1.2001                 1.1311
 Frc consts  --      3.1897                 1.5499                 1.4773
 IR Inten    --     13.8828                10.4617                15.6092

                     43                     44                     45
                      A                      A                      A
 Frequencies --   1496.0406              1509.2560              1533.0230
 Red. masses --      1.0465                 1.0505                 2.3189
 Frc consts  --      1.3800                 1.4099                 3.2109
 IR Inten    --      6.5961                 8.0518                60.1412

                     46                     47                     48
                      A                      A                      A
 Frequencies --   1629.9508              1651.2571              1821.4895
 Red. masses --      6.8886                 5.7097                10.9227
 Frc consts  --     10.7828                 9.1726                21.3518
 IR Inten    --      0.5420                 5.3169               186.9710

                     49                     50                     51
                      A                      A                      A
 Frequencies --   3067.5116              3075.9060              3139.8567
 Red. masses --      1.0297                 1.0611                 1.1040
 Frc consts  --      5.7088                 5.9151                 6.4124
 IR Inten    --     30.0486                10.6309                 5.7656

                     52                     53                     54
                      A                      A                      A
 Frequencies --   3145.9962              3179.1742              3188.6485
 Red. masses --      1.1071                 1.1072                 1.0895
 Frc consts  --      6.4556                 6.5936                 6.5269
 IR Inten    --     19.8791                14.8867                 9.8903

                     55                     56                     57
                      A                      A                      A
 Frequencies --   3203.6678              3221.8355              3223.4633
 Red. masses --      1.0891                 1.0937                 1.0948
 Frc consts  --      6.5859                 6.6887                 6.7027
 IR Inten    --      0.7902                 4.1135                 0.3753

 - Thermochemistry -
 -------------------
 Temperature   298.150 Kelvin.  Pressure   1.00000 Atm.
 Atom     1 has atomic number  6 and mass  12.00000

 Molecular mass:   227.97859 amu.
 Principal axes and moments of inertia in atomic units:
                           1         2         3
     Eigenvalues --   905.716097692.814657778.95759
           X            0.99989  -0.00252   0.01452
           Y            0.00286   0.99973  -0.02290
           Z           -0.01446   0.02294   0.99963
 This molecule is an asymmetric top.
 Rotational symmetry number  1.
 Warning -- assumption of classical behavior for rotation
           may cause significant error
 Rotational temperatures (Kelvin)      0.09563     0.01126     0.01113
 Rotational constants (GHZ):           1.99261     0.23460     0.23200
 Zero-point vibrational energy     425854.2 (Joules/Mol)
                                  101.78159 (Kcal/Mol)
 Warning -- explicit consideration of  15 degrees of freedom as
           vibrations may cause significant error
 Vibrational temperatures:     25.44    45.95    90.57   162.01   185.12
          (Kelvin)            263.62   292.51   389.58   419.56   473.58
                              505.69   606.42   608.94   726.68   834.92
                              928.06   957.12  1035.52  1115.45  1187.47
                             1224.89  1231.78  1288.21  1382.97  1399.64
                             1421.09  1483.25  1508.21  1577.42  1632.79
                             1678.74  1697.20  1743.22  1744.10  1757.06
                             1860.14  1907.46  1920.59  1967.42  2085.46
                             2130.13  2142.18  2152.47  2171.48  2205.68
                             2345.14  2375.79  2620.72  4413.46  4425.54
                             4517.55  4526.39  4574.12  4587.75  4609.36
                             4635.50  4637.84

 Zero-point correction=                           0.162199 (Hartree/Particle)
 Thermal correction to Energy=                    0.173858
 Thermal correction to Enthalpy=                  0.174802
 Thermal correction to Gibbs Free Energy=         0.120952
 Sum of electronic and zero-point Energies=          -3070.433745
 Sum of electronic and thermal Energies=             -3070.422086
 Sum of electronic and thermal Enthalpies=           -3070.421142
 Sum of electronic and thermal Free Energies=        -3070.474992

                     E (Thermal)             CV                S
                      KCal/Mol        Cal/Mol-Kelvin    Cal/Mol-Kelvin
 Total                  109.098             41.369            113.338
 Electronic               0.000              0.000              0.000
 Translational            0.889              2.981             42.174
 Rotational               0.889              2.981             32.361
 Vibrational            107.320             35.407             38.803
 Vibration     1          0.593              1.986              6.879
 Vibration     2          0.594              1.983              5.705
 Vibration     3          0.597              1.972              4.362
 Vibration     4          0.607              1.939              3.223
 Vibration     5          0.611              1.925              2.966
 Vibration     6          0.631              1.863              2.295
 Vibration     7          0.639              1.835              2.103
 Vibration     8          0.674              1.727              1.591
 Vibration     9          0.687              1.689              1.465
 Vibration    10          0.712              1.617              1.264
 Vibration    11          0.728              1.572              1.160
 Vibration    12          0.784              1.424              0.887
 Vibration    13          0.785              1.420              0.881
 Vibration    14          0.860              1.239              0.646
 Vibration    15          0.937              1.074              0.485

 Optimization completed.
    -- Stationary point found.
 Normal termination of Gaussian 16 at Tue Sep 17 09:48:02 2024.

 ----------------------------------------------------------------------
 #p M062X/def2tzvp geom=check guess=read scf(xqc,tight) integral(grid=u
 ltrafine) scrf(SMD, solvent=1,4-Dioxane) polar prop=efg volume
 ----------------------------------------------------------------------

 ---
 spe
 ---
 Structure from the checkpoint file:  "smiles_00047_conf_1.chk"
 Charge =  0 Multiplicity = 1

 SCF Done:  E(RM062X) =  -3073.02463955     A.U. after   11 cycles

  Exact polarizability:     197.105       4.363     139.079     -12.309       6.692     105.748
 Approx polarizability:     189.406       4.099     170.856     -16.440      10.531     122.146

 Normal termination of Gaussian 16 at Tue Sep 17 10:29:07 2024.
 Gaussian 16:  ES64L-G16RevC.02  7-Dec-2021

 ----------------------------------------------------------------------
 #p M062X/def2tzvp geom=check guess=read scf(xqc,tight) integral(grid=u
 ltrafine) scrf(SMD, solvent=1,4-Dioxane) nmr=giao
 ----------------------------------------------------------------------

 ---
 spe
 ---
 Structure from the checkpoint file:  "smiles_00047_conf_1.chk"
 Charge =  0 Multiplicity = 1

                         Standard orientation:
 ---------------------------------------------------------------------
 Center     Atomic      Atomic             Coordinates (Angstroms)
 Number     Number       Type             X           Y           Z
 ---------------------------------------------------------------------
      1          6           0       -4.615448    0.173696   -1.650386
      2          8           0       -3.809684   -0.554579   -0.707268
      3          6           0       -3.303695    0.183726    0.300455
      4          8           0       -3.512626    1.369876    0.439859
      5          6           0       -2.404135   -0.646021    1.197661
      6          6           0       -0.948671   -0.448214    0.815401
      7          6           0       -0.168822   -1.524784    0.386217
      8          6           0        1.169130   -1.346786    0.033855
      9          6           0        1.722168   -0.072431    0.109668
     10         35           0        3.554201    0.185607   -0.369457
     11          6           0        0.964256    1.019905    0.527518
     12          6           0       -0.369153    0.825250    0.877799
     13          1           0       -4.027361    0.963329   -2.123588
     14          1           0       -5.475439    0.625370   -1.150818
     15          1           0       -4.939625   -0.559554   -2.387722
     16          1           0       -2.575043   -0.308232    2.224154
     17          1           0       -2.676710   -1.700094    1.123325
     18          1           0       -0.606858   -2.516733    0.325769
     19          1           0        1.771834   -2.184599   -0.296165
     20          1           0        1.411525    2.005663    0.576712
     21          1           0       -0.974671    1.670171    1.189475
 ---------------------------------------------------------------------

 SCF Done:  E(RM062X) =  -3073.02463955     A.U. after    1 cycles

      1  C    Isotropic =   130.4491   Anisotropy =    74.3450

      2  O    Isotropic =   120.3884   Anisotropy =   180.3608

      3  C    Isotropic =    -9.9016   Anisotropy =   122.0002

      4  O    Isotropic =  -151.4117   Anisotropy =   676.8380

      5  C    Isotropic =   139.9347   Anisotropy =    21.8518

      6  C    Isotropic =    26.8419   Anisotropy =   220.5379

      7  C    Isotropic =    32.3524   Anisotropy =   187.7157

      8  C    Isotropic =    31.4663   Anisotropy =   184.2276

      9  C    Isotropic =    25.7243   Anisotropy =   141.3931

     10  Br   Isotropic =  2088.4022   Anisotropy =  1285.4871

     11  C    Isotropic =    30.8244   Anisotropy =   185.3399

     12  C    Isotropic =    32.5019   Anisotropy =   210.3667

     13  H    Isotropic =    28.4095   Anisotropy =     7.6723

     14  H    Isotropic =    28.1284   Anisotropy =     8.5649

     15  H    Isotropic =    28.3483   Anisotropy =     7.8550

     16  H    Isotropic =    28.1638   Anisotropy =     5.5049

     17  H    Isotropic =    28.3346   Anisotropy =     4.0659

     18  H    Isotropic =    23.8377   Anisotropy =     7.8332

     19  H    Isotropic =    23.7227   Anisotropy =    10.2471

     20  H    Isotropic =    23.6365   Anisotropy =    10.5729

     21  H    Isotropic =    23.2539   Anisotropy =     9.3587

 The electronic state is 1-A.
 Alpha  occ. eigenvalues -- -485.37515 -63.35996 -57.17940 -57.17705 -57.17699
 Alpha  occ. eigenvalues --  -19.67753 -19.62171 -10.67879 -10.60403 -10.58871
 Alpha  occ. eigenvalues --  -10.56743 -10.55947 -10.55798 -10.55745 -10.55545
 Alpha  occ. eigenvalues --  -10.55272  -9.02641  -6.85045  -6.84175  -6.84156
 Alpha  occ. eigenvalues --   -2.88421  -2.88106  -2.88083  -2.87272  -2.87272
 Alpha  occ. eigenvalues --   -1.23634  -1.14384  -0.98518  -0.91844  -0.87002
 Alpha  occ. eigenvalues --   -0.85707  -0.82224  -0.77615  -0.70805  -0.67579
 Alpha  occ. eigenvalues --   -0.65271  -0.59609  -0.58490  -0.57204  -0.55701
 Alpha  occ. eigenvalues --   -0.54397  -0.53249  -0.50182  -0.49533  -0.48448
 Alpha  occ. eigenvalues --   -0.47260  -0.45534  -0.44844  -0.43575  -0.41802
 Alpha  occ. eigenvalues --   -0.40885  -0.38186  -0.37839  -0.35891  -0.35163
 Alpha  occ. eigenvalues --   -0.32180  -0.29512
 Alpha virt. eigenvalues --    0.00275   0.00692   0.03584   0.04905   0.07720
 Alpha virt. eigenvalues --    0.09766   0.10464   0.10877   0.12311   0.13347
 Alpha virt. eigenvalues --    0.14137   0.14469   0.15516   0.16185   0.16540

 Mulliken charges:
               1
     1  C   -0.267500
     2  O   -0.271497
     3  C    0.397300
     4  O   -0.366645
     5  C   -0.364410
     6  C    0.080735
     7  C   -0.188218
     8  C   -0.155587
     9  C    0.031737
    10  Br  -0.116881
    11  C   -0.155253
    12  C   -0.187420
    13  H    0.161292
    14  H    0.160106
    15  H    0.156596
    16  H    0.192944
    17  H    0.171914
    18  H    0.168813
    19  H    0.180127
    20  H    0.182003
    21  H    0.189844
 Sum of Mulliken charges =  -0.00000

 Dipole moment (field-independent basis, Debye):
    X=             -2.2317    Y=             -2.0011    Z=             -0.3561  Tot=              3.0185
 Quadrupole moment (field-independent basis, Debye-Ang):
   XX=            -81.6261   YY=            -80.6644   ZZ=            -80.5212
   XY=              5.6692   XZ=              4.4832   YZ=             -1.1962

 Normal termination of Gaussian 16 at Tue Sep 17 10:45:39 2024.
