 Gaussian 16, Revision C.02,

 ----------------------------------------------------------------------
 #p B3LYP/6-31G(d,p) EmpiricalDispersion=GD3BJ opt freq scf(xqc,tight)
 integral(grid=ultrafine)
 ----------------------------------------------------------------------

 ----------------------------------
 opt-freq conformers_unique/conf_aa
 ----------------------------------
 Symbolic Z-matrix:
 Charge =  0 Multiplicity = 1

 SCF Done:  E(RB3LYP) =  -2882.03658633     A.U. after   14 cycles
 SCF Done:  E(RB3LYP) =  -2882.03767006     A.U. after   11 cycles
 SCF Done:  E(RB3LYP) =  -2882.03769560     A.U. after    8 cycles
 SCF Done:  E(RB3LYP) =  -2882.03769623     A.U. after    7 cycles
 Optimization completed.
    -- Stationary point found.
 Normal termination of Gaussian 16 at Tue Sep 17 09:56:37 2024.

 ----------------------------------------------------------------------
 #P Geom=AllCheck Guess=TCheck SCRF=Check GenChk RB3LYP/6-31G(d,p) Freq
 ----------------------------------------------------------------------

 Structure from the checkpoint file:  "smiles_00066_conf_0.chk"
 ----------------------------------
 opt-freq conformers_unique/conf_aa
 ----------------------------------
 Charge =  0 Multiplicity = 1

 SCF Done:  E(RB3LYP) =  -2882.03769623     A.U. after    1 cycles
 ******    1 imaginary frequencies (negative Signs) ******

                      1                      2                      3
                      A                      A                      A
 Frequencies --    -19.8040                22.3983               145.5327
 Red. masses --      1.0270                 1.0210                 4.3354
 Frc consts  --      0.0002                 0.0003                 0.0541
 IR Inten    --      0.1960                 0.2978                 1.1131

                      4                      5                      6
                      A                      A                      A
 Frequencies --    183.9680               211.4589               224.9368
 Red. masses --      4.8460                 3.2380                 3.0159
 Frc consts  --      0.0966                 0.0853                 0.0899
 IR Inten    --      0.0030                 1.1417                 0.0426

                      7                      8                      9
                      A                      A                      A
 Frequencies --    248.3991               327.6648               449.0924
 Red. masses --      3.3170                 5.4690                 2.7174
 Frc consts  --      0.1206                 0.3460                 0.3229
 IR Inten    --      1.6593                 1.0882                 0.1391

                     10                     11                     12
                      A                      A                      A
 Frequencies --    519.2694               526.4978               532.9283
 Red. masses --      4.8981                 3.1912                 4.3007
 Frc consts  --      0.7782                 0.5212                 0.7197
 IR Inten    --      0.3517                 0.0956                 0.0369

                     13                     14                     15
                      A                      A                      A
 Frequencies --    551.9270               703.4010               818.5121
 Red. masses --      4.5868                 2.4523                 7.0089
 Frc consts  --      0.8232                 0.7149                 2.7666
 IR Inten    --      3.1889                 6.2711                46.6008

                     16                     17                     18
                      A                      A                      A
 Frequencies --    871.5021               897.3806               912.9314
 Red. masses --      1.3435                 1.3066                 1.3481
 Frc consts  --      0.6012                 0.6199                 0.6620
 IR Inten    --     19.6549                 0.0135                 1.5857

                     19                     20                     21
                      A                      A                      A
 Frequencies --    964.5098              1009.8272              1019.7180
 Red. masses --      3.5516                 2.0311                 2.4627
 Frc consts  --      1.9466                 1.2203                 1.5087
 IR Inten    --      1.3290                 9.7086                 1.4271

                     22                     23                     24
                      A                      A                      A
 Frequencies --   1041.6096              1066.1254              1066.1460
 Red. masses --      1.5766                 1.5224                 1.5441
 Frc consts  --      1.0078                 1.0195                 1.0341
 IR Inten    --      0.7530                 2.0167                 9.2121

                     25                     26                     27
                      A                      A                      A
 Frequencies --   1140.8099              1195.5383              1283.8847
 Red. masses --      1.5494                 1.4199                 3.9393
 Frc consts  --      1.1881                 1.1958                 3.8258
 IR Inten    --      6.6957                 0.1013                12.8028

                     28                     29                     30
                      A                      A                      A
 Frequencies --   1308.6193              1352.8357              1424.8017
 Red. masses --      1.4137                 4.3266                 1.2339
 Frc consts  --      1.4264                 4.6654                 1.4758
 IR Inten    --      0.3747                 0.9633                 0.0804

                     31                     32                     33
                      A                      A                      A
 Frequencies --   1427.0848              1463.4168              1478.6564
 Red. masses --      1.2619                 2.0673                 2.2394
 Frc consts  --      1.5142                 2.6085                 2.8849
 IR Inten    --      0.6128                 1.8993                 1.5919

                     34                     35                     36
                      A                      A                      A
 Frequencies --   1498.6577              1500.4934              1514.3722
 Red. masses --      1.0455                 1.0523                 1.2783
 Frc consts  --      1.3835                 1.3959                 1.7272
 IR Inten    --      7.0838                 3.8067                17.0411

                     37                     38                     39
                      A                      A                      A
 Frequencies --   1519.0517              1629.1833              1660.5679
 Red. masses --      1.3024                 5.6458                 6.1176
 Frc consts  --      1.7707                 8.8291                 9.9391
 IR Inten    --     29.2505                59.5101                32.6228

                     40                     41                     42
                      A                      A                      A
 Frequencies --   3042.6626              3044.0011              3101.8783
 Red. masses --      1.0386                 1.0373                 1.1005
 Frc consts  --      5.6648                 5.6632                 6.2389
 IR Inten    --     30.5361                23.3299                10.9076

                     43                     44                     45
                      A                      A                      A
 Frequencies --   3102.2234              3130.9554              3131.4955
 Red. masses --      1.0988                 1.1018                 1.1022
 Frc consts  --      6.2302                 6.3634                 6.3682
 IR Inten    --     24.1650                12.6900                16.2259

                     46                     47                     48
                      A                      A                      A
 Frequencies --   3173.8555              3207.2036              3210.8201
 Red. masses --      1.0903                 1.0916                 1.0917
 Frc consts  --      6.4708                 6.6155                 6.6309
 IR Inten    --     16.3168                 2.2973                 1.8884

 - Thermochemistry -
 -------------------
 Temperature   298.150 Kelvin.  Pressure   1.00000 Atm.
 Atom     1 has atomic number  6 and mass  12.00000

 Molecular mass:   183.98876 amu.
 Principal axes and moments of inertia in atomic units:
                           1         2         3
     Eigenvalues --  1027.951252694.932623700.48045
           X            1.00000   0.00026  -0.00008
           Y           -0.00026   1.00000  -0.00033
           Z            0.00008   0.00033   1.00000
 This molecule is an asymmetric top.
 Rotational symmetry number  1.
 Warning -- assumption of classical behavior for rotation
           may cause significant error
 Rotational temperatures (Kelvin)      0.08426     0.03214     0.02341
 Rotational constants (GHZ):           1.75567     0.66968     0.48770
    1 imaginary frequencies ignored.
 Zero-point vibrational energy     381960.5 (Joules/Mol)
                                   91.29075 (Kcal/Mol)
 Warning -- explicit consideration of  12 degrees of freedom as
           vibrations may cause significant error
 Vibrational temperatures:     32.23   209.39   264.69   304.24   323.63
          (Kelvin)            357.39   471.44   646.14   747.11   757.51
                              766.76   794.10  1012.04  1177.66  1253.90
                             1291.13  1313.50  1387.71  1452.92  1467.15
                             1498.64  1533.92  1533.95  1641.37  1720.11
                             1847.22  1882.81  1946.43  2049.97  2053.26
                             2105.53  2127.46  2156.23  2158.88  2178.84
                             2185.58  2344.03  2389.19  4377.71  4379.64
                             4462.91  4463.41  4504.75  4505.52  4566.47
                             4614.45  4619.65

 Zero-point correction=                           0.145481 (Hartree/Particle)
 Thermal correction to Energy=                    0.154125
 Thermal correction to Enthalpy=                  0.155069
 Thermal correction to Gibbs Free Energy=         0.109704
 Sum of electronic and zero-point Energies=          -2881.892215
 Sum of electronic and thermal Energies=             -2881.883571
 Sum of electronic and thermal Enthalpies=           -2881.882627
 Sum of electronic and thermal Free Energies=        -2881.927992

                     E (Thermal)             CV                S
                      KCal/Mol        Cal/Mol-Kelvin    Cal/Mol-Kelvin
 Total                   96.715             31.487             95.479
 Electronic               0.000              0.000              0.000
 Translational            0.889              2.981             41.535
 Rotational               0.889              2.981             30.706
 Vibrational             94.938             25.526             23.237
 Vibration     1          0.593              1.985              6.409
 Vibration     2          0.617              1.908              2.730
 Vibration     3          0.631              1.862              2.288
 Vibration     4          0.643              1.823              2.031
 Vibration     5          0.650              1.803              1.919
 Vibration     6          0.662              1.765              1.742
 Vibration     7          0.711              1.620              1.272
 Vibration     8          0.808              1.363              0.799
 Vibration     9          0.874              1.207              0.612
 Vibration    10          0.881              1.191              0.595
 Vibration    11          0.888              1.177              0.581
 Vibration    12          0.907              1.135              0.540

                           ! Non-Optimized Parameters !
 Normal termination of Gaussian 16 at Tue Sep 17 09:57:31 2024.

 ----------------------------------------------------------------------
 #p M062X/def2tzvp geom=check guess=read scf(xqc,tight) integral(grid=u
 ltrafine) scrf(SMD, solvent=1,4-Dioxane) polar prop=efg volume
 ----------------------------------------------------------------------

 ---
 spe
 ---
 Structure from the checkpoint file:  "smiles_00066_conf_0.chk"
 Charge =  0 Multiplicity = 1

 SCF Done:  E(RM062X) =  -2884.45062789     A.U. after   11 cycles

  Exact polarizability:     168.806       0.587     145.977      -0.076      -0.327      78.778
 Approx polarizability:     175.076       0.701     155.524      -0.060      -0.220      96.505

 Normal termination of Gaussian 16 at Tue Sep 17 10:17:47 2024.
 Gaussian 16:  ES64L-G16RevC.02  7-Dec-2021

 ----------------------------------------------------------------------
 #p M062X/def2tzvp geom=check guess=read scf(xqc,tight) integral(grid=u
 ltrafine) scrf(SMD, solvent=1,4-Dioxane) nmr=giao
 ----------------------------------------------------------------------

 ---
 spe
 ---
 Structure from the checkpoint file:  "smiles_00066_conf_0.chk"
 Charge =  0 Multiplicity = 1

                         Standard orientation:
 ---------------------------------------------------------------------
 Center     Atomic      Atomic             Coordinates (Angstroms)
 Number     Number       Type             X           Y           Z
 ---------------------------------------------------------------------
      1          6           0       -2.415350   -2.525005    0.006972
      2          6           0       -1.652436   -1.223172   -0.009130
      3          6           0       -2.333507    0.001331   -0.004009
      4          6           0       -1.654944    1.221294    0.004466
      5          6           0       -2.402781    2.532088   -0.001817
      6          6           0       -0.253056    1.214972    0.007813
      7          6           0        0.420529    0.001223    0.000143
      8         35           0        2.335502   -0.002234    0.000256
      9          6           0       -0.255711   -1.216629   -0.009494
     10          1           0       -2.831313   -2.724116    1.001619
     11          1           0       -1.772208   -3.368032   -0.257684
     12          1           0       -3.253649   -2.502055   -0.696220
     13          1           0       -3.420657    0.001208   -0.007486
     14          1           0       -2.077755    3.177950    0.820544
     15          1           0       -3.479765    2.375330    0.096711
     16          1           0       -2.227634    3.082016   -0.933330
     17          1           0        0.302858    2.146019    0.013782
     18          1           0        0.301109   -2.146737   -0.016557
 ---------------------------------------------------------------------

 SCF Done:  E(RM062X) =  -2884.45062789     A.U. after    1 cycles

      1  C    Isotropic =   163.8200   Anisotropy =    41.1145

      2  C    Isotropic =    19.8958   Anisotropy =   226.1403

      3  C    Isotropic =    34.1782   Anisotropy =   175.1147

      4  C    Isotropic =    20.1570   Anisotropy =   226.1344

      5  C    Isotropic =   163.7928   Anisotropy =    41.5893

      6  C    Isotropic =    34.3008   Anisotropy =   167.0064

      7  C    Isotropic =    25.1346   Anisotropy =   136.3742

      8  Br   Isotropic =  2091.5415   Anisotropy =  1297.4777

      9  C    Isotropic =    34.5735   Anisotropy =   158.1673

     10  H    Isotropic =    29.3253   Anisotropy =     8.4102

     11  H    Isotropic =    29.6734   Anisotropy =     7.3995

     12  H    Isotropic =    29.4128   Anisotropy =     8.0649

     13  H    Isotropic =    24.1020   Anisotropy =     9.3167

     14  H    Isotropic =    29.3386   Anisotropy =     7.9374

     15  H    Isotropic =    29.7367   Anisotropy =     7.8234

     16  H    Isotropic =    29.2990   Anisotropy =     8.1496

     17  H    Isotropic =    23.9564   Anisotropy =    12.1955

     18  H    Isotropic =    24.0347   Anisotropy =    11.7925

 The electronic state is 1-A.
 Alpha  occ. eigenvalues -- -485.37122 -63.35603 -57.17546 -57.17313 -57.17307
 Alpha  occ. eigenvalues --  -10.59930 -10.55858 -10.55836 -10.54654 -10.54651
 Alpha  occ. eigenvalues --  -10.54017 -10.53297 -10.53292  -9.02246  -6.84643
 Alpha  occ. eigenvalues --   -6.83784  -6.83764  -2.88020  -2.87709  -2.87685
 Alpha  occ. eigenvalues --   -2.86884  -2.86884  -0.97914  -0.90238  -0.88581
 Alpha  occ. eigenvalues --   -0.82344  -0.78196  -0.77854  -0.66436  -0.65890
 Alpha  occ. eigenvalues --   -0.58082  -0.55220  -0.49936  -0.49794  -0.48015
 Alpha  occ. eigenvalues --   -0.47691  -0.47255  -0.46167  -0.44255  -0.43554
 Alpha  occ. eigenvalues --   -0.40332  -0.39648  -0.36622  -0.34765  -0.29997
 Alpha  occ. eigenvalues --   -0.29193
 Alpha virt. eigenvalues --    0.01236   0.01679   0.04019   0.07654   0.09061
 Alpha virt. eigenvalues --    0.11695   0.11921   0.13032   0.13690   0.15003
 Alpha virt. eigenvalues --    0.16458   0.16784   0.17924   0.18341   0.18576

 Mulliken charges:
               1
     1  C   -0.492363
     2  C    0.130163
     3  C   -0.254073
     4  C    0.133889
     5  C   -0.492913
     6  C   -0.236070
     7  C    0.088116
     8  Br  -0.124070
     9  C   -0.244760
    10  H    0.169567
    11  H    0.154555
    12  H    0.161845
    13  H    0.164967
    14  H    0.166013
    15  H    0.151022
    16  H    0.168688
    17  H    0.179063
    18  H    0.176363
 Sum of Mulliken charges =  -0.00000

 Dipole moment (field-independent basis, Debye):
    X=             -2.8017    Y=              0.0433    Z=              0.0180  Tot=              2.8021
 Quadrupole moment (field-independent basis, Debye-Ang):
   XX=            -63.2141   YY=            -59.2487   ZZ=            -70.1336
   XY=              0.0620   XZ=             -0.0332   YZ=             -0.0606

 Normal termination of Gaussian 16 at Tue Sep 17 10:25:20 2024.
