 Gaussian 16, Revision C.02,

 ----------------------------------------------------------------------
 #p B3LYP/6-31G(d,p) EmpiricalDispersion=GD3BJ opt freq scf(xqc,tight)
 integral(grid=ultrafine)
 ----------------------------------------------------------------------

 ----------------------------------
 opt-freq conformers_unique/conf_ag
 ----------------------------------
 Symbolic Z-matrix:
 Charge =  0 Multiplicity = 1

 SCF Done:  E(RB3LYP) =  -3150.42140233     A.U. after   14 cycles
 SCF Done:  E(RB3LYP) =  -3150.42263908     A.U. after   12 cycles
 SCF Done:  E(RB3LYP) =  -3150.42277430     A.U. after   11 cycles
 SCF Done:  E(RB3LYP) =  -3150.42287737     A.U. after   11 cycles
 SCF Done:  E(RB3LYP) =  -3150.42292273     A.U. after   11 cycles
 SCF Done:  E(RB3LYP) =  -3150.42295602     A.U. after   10 cycles
 SCF Done:  E(RB3LYP) =  -3150.42300309     A.U. after   11 cycles
 SCF Done:  E(RB3LYP) =  -3150.42303374     A.U. after   11 cycles
 SCF Done:  E(RB3LYP) =  -3150.42306406     A.U. after   11 cycles
 SCF Done:  E(RB3LYP) =  -3150.42308955     A.U. after   11 cycles
 SCF Done:  E(RB3LYP) =  -3150.42309051     A.U. after   10 cycles
 SCF Done:  E(RB3LYP) =  -3150.42309270     A.U. after    9 cycles
 SCF Done:  E(RB3LYP) =  -3150.42309193     A.U. after    9 cycles
 SCF Done:  E(RB3LYP) =  -3150.42309272     A.U. after    9 cycles
 Optimization completed.
    -- Stationary point found.
 Normal termination of Gaussian 16 at Tue Sep 17 09:55:04 2024.

 ----------------------------------------------------------------------
 #P Geom=AllCheck Guess=TCheck SCRF=Check GenChk RB3LYP/6-31G(d,p) Freq
 ----------------------------------------------------------------------

 Structure from the checkpoint file:  "smiles_00034_conf_6.chk"
 ----------------------------------
 opt-freq conformers_unique/conf_ag
 ----------------------------------
 Charge =  0 Multiplicity = 1

 SCF Done:  E(RB3LYP) =  -3150.42309272     A.U. after    1 cycles

                      1                      2                      3
                      A                      A                      A
 Frequencies --     16.3719                45.5835                54.9875
 Red. masses --      3.7780                 2.4687                 2.9681
 Frc consts  --      0.0006                 0.0030                 0.0053
 IR Inten    --      0.1300                 0.2345                 0.0977

                      4                      5                      6
                      A                      A                      A
 Frequencies --     80.8667                86.7614               114.4771
 Red. masses --      4.1457                 3.0146                 2.0915
 Frc consts  --      0.0160                 0.0134                 0.0161
 IR Inten    --      0.2288                 0.7139                 1.5897

                      7                      8                      9
                      A                      A                      A
 Frequencies --    165.7754               181.5931               198.1099
 Red. masses --      4.5281                 4.3742                 4.4596
 Frc consts  --      0.0733                 0.0850                 0.1031
 IR Inten    --      2.2107                 2.0902                 0.8245

                     10                     11                     12
                      A                      A                      A
 Frequencies --    238.8176               253.9811               265.9946
 Red. masses --      2.2685                 1.4743                 1.3879
 Frc consts  --      0.0762                 0.0560                 0.0579
 IR Inten    --      1.4359                 0.8734                 0.7997

                     13                     14                     15
                      A                      A                      A
 Frequencies --    305.8501               318.2421               330.7621
 Red. masses --      6.6822                 2.9529                 4.0867
 Frc consts  --      0.3683                 0.1762                 0.2634
 IR Inten    --      1.4212                 1.6834                 0.9272

                     16                     17                     18
                      A                      A                      A
 Frequencies --    356.1416               436.0125               452.5499
 Red. masses --      3.6803                 3.4421                 3.2679
 Frc consts  --      0.2750                 0.3855                 0.3943
 IR Inten    --      3.2810                11.4798                 3.3127

                     19                     20                     21
                      A                      A                      A
 Frequencies --    499.8393               533.3128               632.8931
 Red. masses --      4.2215                 4.8207                 5.4903
 Frc consts  --      0.6214                 0.8078                 1.2957
 IR Inten    --      2.7622                 1.0505                 6.1208

                     22                     23                     24
                      A                      A                      A
 Frequencies --    677.5888               697.3124               735.4304
 Red. masses --      5.6971                 3.3745                 2.9004
 Frc consts  --      1.5411                 0.9667                 0.9243
 IR Inten    --      9.3068                15.1301                29.3565

                     25                     26                     27
                      A                      A                      A
 Frequencies --    800.9698               814.9976               824.8237
 Red. masses --      1.4261                 1.3050                 1.1160
 Frc consts  --      0.5391                 0.5107                 0.4473
 IR Inten    --     34.6545                 1.2097                 0.3414

                     28                     29                     30
                      A                      A                      A
 Frequencies --    844.7572               891.2046               919.7364
 Red. masses --      2.3825                 2.7132                 1.6032
 Frc consts  --      1.0017                 1.2697                 0.7990
 IR Inten    --      6.4636                12.0614                 8.8125

                     31                     32                     33
                      A                      A                      A
 Frequencies --    937.2052               966.3606               993.6605
 Red. masses --      1.3493                 2.1586                 1.3123
 Frc consts  --      0.6983                 1.1877                 0.7634
 IR Inten    --      2.9594                 6.0845                 1.2608

                     34                     35                     36
                      A                      A                      A
 Frequencies --   1009.9767              1021.0168              1051.0517
 Red. masses --      3.2649                 4.6916                 3.7933
 Frc consts  --      1.9622                 2.8816                 2.4689
 IR Inten    --      2.0557                 7.0367                43.2955

                     37                     38                     39
                      A                      A                      A
 Frequencies --   1091.1192              1097.8877              1113.9615
 Red. masses --      5.5812                 2.0807                 2.0584
 Frc consts  --      3.9149                 1.4776                 1.5049
 IR Inten    --    202.2564                37.0492                61.3135

                     40                     41                     42
                      A                      A                      A
 Frequencies --   1122.4665              1147.7013              1154.6246
 Red. masses --      1.8007                 3.9875                 2.2813
 Frc consts  --      1.3367                 3.0946                 1.7919
 IR Inten    --     45.5799               167.9804                13.0452

                     43                     44                     45
                      A                      A                      A
 Frequencies --   1192.4076              1194.5402              1204.5579
 Red. masses --      1.4678                 1.1689                 1.7972
 Frc consts  --      1.2296                 0.9827                 1.5364
 IR Inten    --      5.8177                 8.2091                12.7835

                     46                     47                     48
                      A                      A                      A
 Frequencies --   1226.4814              1302.6740              1306.4887
 Red. masses --      2.4975                 1.1173                 1.4329
 Frc consts  --      2.2135                 1.1171                 1.4411
 IR Inten    --    105.1880                 0.7647                20.9481

                     49                     50                     51
                      A                      A                      A
 Frequencies --   1338.8753              1353.6698              1367.8458
 Red. masses --      1.1082                 3.5262                 1.4925
 Frc consts  --      1.1704                 3.8069                 1.6452
 IR Inten    --      4.9123                 7.6544               115.8363

                     52                     53                     54
                      A                      A                      A
 Frequencies --   1391.7048              1406.7942              1417.1206
 Red. masses --      1.1934                 1.2530                 1.2498
 Frc consts  --      1.3618                 1.4610                 1.4787
 IR Inten    --      7.3109                 6.7749                 3.7142

                     55                     56                     57
                      A                      A                      A
 Frequencies --   1429.0804              1449.6229              1464.1907
 Red. masses --      1.3081                 1.4938                 2.5332
 Frc consts  --      1.5740                 1.8495                 3.1998
 IR Inten    --     10.8692                23.4638                23.3649

                     58                     59                     60
                      A                      A                      A
 Frequencies --   1498.2174              1500.6527              1508.3894
 Red. masses --      1.0412                 1.0440                 1.0645
 Frc consts  --      1.3770                 1.3852                 1.4270
 IR Inten    --      3.9132                 3.3355                 0.4490

                     61                     62                     63
                      A                      A                      A
 Frequencies --   1515.1576              1516.3671              1528.6660
 Red. masses --      1.3336                 1.6266                 1.0692
 Frc consts  --      1.8038                 2.2036                 1.4721
 IR Inten    --      9.6397                 6.3226                 4.4727

                     64                     65                     66
                      A                      A                      A
 Frequencies --   1543.7508              1628.5064              1654.0291
 Red. masses --      1.0855                 6.3473                 6.1733
 Frc consts  --      1.5242                 9.9179                 9.9507
 IR Inten    --      1.1722                29.6043                 8.1300

                     67                     68                     69
                      A                      A                      A
 Frequencies --   2997.0607              3004.0317              3048.6191
 Red. masses --      1.0717                 1.0781                 1.0547
 Frc consts  --      5.6719                 5.7320                 5.7754
 IR Inten    --      8.3071                89.4528                30.9956

                     70                     71                     72
                      A                      A                      A
 Frequencies --   3050.8702              3054.7635              3065.3403
 Red. masses --      1.0415                 1.0353                 1.0960
 Frc consts  --      5.7115                 5.6920                 6.0675
 IR Inten    --     18.8422                15.0327                27.2926

                     73                     74                     75
                      A                      A                      A
 Frequencies --   3093.8176              3119.0304              3130.5181
 Red. masses --      1.1068                 1.1009                 1.1024
 Frc consts  --      6.2417                 6.3104                 6.3654
 IR Inten    --     22.9960                30.9887                29.6297

                     76                     77                     78
                      A                      A                      A
 Frequencies --   3133.9048              3152.6653              3192.2072
 Red. masses --      1.1036                 1.1020                 1.0873
 Frc consts  --      6.3859                 6.4536                 6.5281
 IR Inten    --     30.2268                25.5145                 7.4032

                     79                     80                     81
                      A                      A                      A
 Frequencies --   3211.6215              3223.8315              3250.1344
 Red. masses --      1.0928                 1.0949                 1.0912
 Frc consts  --      6.6411                 6.7046                 6.7913
 IR Inten    --      6.1911                 4.9594                 1.2891

 - Thermochemistry -
 -------------------
 Temperature   298.150 Kelvin.  Pressure   1.00000 Atm.
 Atom     1 has atomic number  6 and mass  12.00000

 Molecular mass:   258.02554 amu.
 Principal axes and moments of inertia in atomic units:
                           1         2         3
     Eigenvalues --  2385.365296956.252898344.21729
           X            0.99866  -0.04966   0.01486
           Y            0.04928   0.99849   0.02445
           Z           -0.01606  -0.02369   0.99959
 This molecule is an asymmetric top.
 Rotational symmetry number  1.
 Warning -- assumption of classical behavior for rotation
           may cause significant error
 Rotational temperatures (Kelvin)      0.03631     0.01245     0.01038
 Rotational constants (GHZ):           0.75659     0.25944     0.21629
 Zero-point vibrational energy     634923.9 (Joules/Mol)
                                  151.75045 (Kcal/Mol)
 Warning -- explicit consideration of  20 degrees of freedom as
           vibrations may cause significant error
 Vibrational temperatures:     23.56    65.58    79.11   116.35   124.83
          (Kelvin)            164.71   238.51   261.27   285.04   343.61
                              365.42   382.71   440.05   457.88   475.89
                              512.41   627.32   651.12   719.16   767.32
                              910.59   974.90  1003.28  1058.12  1152.42
                             1172.60  1186.74  1215.42  1282.24  1323.30
                             1348.43  1390.38  1429.66  1453.13  1469.02
                             1512.23  1569.88  1579.62  1602.74  1614.98
                             1651.29  1661.25  1715.61  1718.68  1733.09
                             1764.63  1874.26  1879.75  1926.34  1947.63
                             1968.02  2002.35  2024.06  2038.92  2056.13
                             2085.68  2106.64  2155.60  2159.10  2170.24
                             2179.97  2181.71  2199.41  2221.11  2343.06
                             2379.78  4312.10  4322.13  4386.28  4389.52
                             4395.12  4410.34  4451.31  4487.59  4504.12
                             4508.99  4535.98  4592.87  4620.81  4638.37
                             4676.22

 Zero-point correction=                           0.241830 (Hartree/Particle)
 Thermal correction to Energy=                    0.256637
 Thermal correction to Enthalpy=                  0.257582
 Thermal correction to Gibbs Free Energy=         0.197207
 Sum of electronic and zero-point Energies=          -3150.181263
 Sum of electronic and thermal Energies=             -3150.166455
 Sum of electronic and thermal Enthalpies=           -3150.165511
 Sum of electronic and thermal Free Energies=        -3150.225886

                     E (Thermal)             CV                S
                      KCal/Mol        Cal/Mol-Kelvin    Cal/Mol-Kelvin
 Total                  161.042             53.679            127.070
 Electronic               0.000              0.000              0.000
 Translational            0.889              2.981             42.543
 Rotational               0.889              2.981             33.293
 Vibrational            159.265             47.717             51.234
 Vibration     1          0.593              1.986              7.032
 Vibration     2          0.595              1.979              5.000
 Vibration     3          0.596              1.976              4.629
 Vibration     4          0.600              1.962              3.870
 Vibration     5          0.601              1.958              3.732
 Vibration     6          0.607              1.937              3.192
 Vibration     7          0.624              1.885              2.483
 Vibration     8          0.630              1.865              2.312
 Vibration     9          0.637              1.843              2.151
 Vibration    10          0.657              1.781              1.812
 Vibration    11          0.665              1.756              1.703
 Vibration    12          0.672              1.735              1.622
 Vibration    13          0.696              1.663              1.385
 Vibration    14          0.705              1.639              1.319
 Vibration    15          0.713              1.614              1.256
 Vibration    16          0.732              1.563              1.139
 Vibration    17          0.796              1.392              0.839
 Vibration    18          0.811              1.355              0.788
 Vibration    19          0.855              1.250              0.659
 Vibration    20          0.888              1.176              0.580

                           ! Non-Optimized Parameters !
 Normal termination of Gaussian 16 at Tue Sep 17 09:58:21 2024.

 ----------------------------------------------------------------------
 #p M062X/def2tzvp geom=check guess=read scf(xqc,tight) integral(grid=u
 ltrafine) scrf(SMD, solvent=1,4-Dioxane) polar prop=efg volume
 ----------------------------------------------------------------------

 ---
 spe
 ---
 Structure from the checkpoint file:  "smiles_00034_conf_6.chk"
 Charge =  0 Multiplicity = 1

 SCF Done:  E(RM062X) =  -3152.81232998     A.U. after   11 cycles

  Exact polarizability:     211.730       3.948     191.578      -7.040      -7.511     131.643
 Approx polarizability:     211.984       9.496     208.167     -12.837     -10.169     151.792

 Normal termination of Gaussian 16 at Tue Sep 17 11:28:17 2024.
 Gaussian 16:  ES64L-G16RevC.02  7-Dec-2021

 ----------------------------------------------------------------------
 #p M062X/def2tzvp geom=check guess=read scf(xqc,tight) integral(grid=u
 ltrafine) scrf(SMD, solvent=1,4-Dioxane) nmr=giao
 ----------------------------------------------------------------------

 ---
 spe
 ---
 Structure from the checkpoint file:  "smiles_00034_conf_6.chk"
 Charge =  0 Multiplicity = 1

                         Standard orientation:
 ---------------------------------------------------------------------
 Center     Atomic      Atomic             Coordinates (Angstroms)
 Number     Number       Type             X           Y           Z
 ---------------------------------------------------------------------
      1          6           0        3.179355   -2.946303   -0.327845
      2          6           0        3.108470   -1.547391   -0.908369
      3          8           0        1.928754   -0.918867   -0.404666
      4          6           0        1.767007    0.407357   -0.836632
      5          8           0        2.693120    1.302282   -0.257514
      6          6           0        2.611709    1.464724    1.167531
      7          6           0        3.534676    0.514723    1.919226
      8          6           0        0.322573    0.820474   -0.598460
      9          6           0       -0.030806    2.165841   -0.749462
     10          6           0       -1.352616    2.567502   -0.574968
     11          6           0       -2.338717    1.635203   -0.247416
     12          6           0       -1.970697    0.301279   -0.100949
     13         35           0       -3.308769   -0.989890    0.352286
     14          6           0       -0.655140   -0.121113   -0.273739
     15          1           0        4.057554   -3.473144   -0.712961
     16          1           0        3.250065   -2.909216    0.763002
     17          1           0        2.286071   -3.518724   -0.593238
     18          1           0        3.990160   -0.957813   -0.630472
     19          1           0        3.061265   -1.579937   -2.007824
     20          1           0        1.992635    0.476056   -1.911922
     21          1           0        2.900668    2.503801    1.355234
     22          1           0        1.575599    1.343238    1.502950
     23          1           0        3.198407   -0.518096    1.810991
     24          1           0        4.558029    0.595182    1.540486
     25          1           0        3.544354    0.766279    2.985415
     26          1           0        0.739542    2.890203   -0.991517
     27          1           0       -1.623550    3.612214   -0.691614
     28          1           0       -3.370289    1.936082   -0.108582
     29          1           0       -0.383481   -1.161056   -0.156003
 ---------------------------------------------------------------------

 SCF Done:  E(RM062X) =  -3152.81232998     A.U. after    1 cycles

      1  C    Isotropic =   170.3106   Anisotropy =    25.5063

      2  C    Isotropic =   119.0463   Anisotropy =    74.0469

      3  O    Isotropic =   235.6750   Anisotropy =    73.7298

      4  C    Isotropic =    77.8162   Anisotropy =    34.0341

      5  O    Isotropic =   245.1786   Anisotropy =    68.4043

      6  C    Isotropic =   122.2735   Anisotropy =    67.9630

      7  C    Isotropic =   167.1855   Anisotropy =    30.3179

      8  C    Isotropic =    17.3704   Anisotropy =   206.8695

      9  C    Isotropic =    37.2829   Anisotropy =   216.8327

     10  C    Isotropic =    33.7848   Anisotropy =   212.9806

     11  C    Isotropic =    31.8224   Anisotropy =   184.5035

     12  C    Isotropic =    24.2314   Anisotropy =   138.7493

     13  Br   Isotropic =  2077.7591   Anisotropy =  1314.0107

     14  C    Isotropic =    32.3791   Anisotropy =   188.5384

     15  H    Isotropic =    30.7056   Anisotropy =    10.9764

     16  H    Isotropic =    30.4928   Anisotropy =     6.6038

     17  H    Isotropic =    30.3712   Anisotropy =     8.2340

     18  H    Isotropic =    27.6497   Anisotropy =     5.0125

     19  H    Isotropic =    28.4248   Anisotropy =     7.3601

     20  H    Isotropic =    26.1889   Anisotropy =     3.2633

     21  H    Isotropic =    28.5451   Anisotropy =     8.3619

     22  H    Isotropic =    28.7121   Anisotropy =     6.5667

     23  H    Isotropic =    30.4038   Anisotropy =     6.2036

     24  H    Isotropic =    30.5450   Anisotropy =     7.5941

     25  H    Isotropic =    31.0763   Anisotropy =    11.1061

     26  H    Isotropic =    23.6465   Anisotropy =    10.0381

     27  H    Isotropic =    23.6833   Anisotropy =     5.8471

     28  H    Isotropic =    23.6958   Anisotropy =     9.9433

     29  H    Isotropic =    23.2230   Anisotropy =    16.4437

 The electronic state is 1-A.
 Alpha  occ. eigenvalues -- -485.37326 -63.35805 -57.17748 -57.17515 -57.17508
 Alpha  occ. eigenvalues --  -19.63607 -19.63134 -10.64458 -10.60306 -10.58232
 Alpha  occ. eigenvalues --  -10.57832 -10.55935 -10.55546 -10.55347 -10.55286
 Alpha  occ. eigenvalues --  -10.54893 -10.52443 -10.51904  -9.02447  -6.84848
 Alpha  occ. eigenvalues --   -6.83983  -6.83962  -2.88224  -2.87912  -2.87887
 Alpha  occ. eigenvalues --   -2.87080  -2.87080  -1.19579  -1.13141  -0.98105
 Alpha  occ. eigenvalues --   -0.90385  -0.87909  -0.84838  -0.84373  -0.81676
 Alpha  occ. eigenvalues --   -0.76292  -0.71680  -0.70143  -0.67857  -0.65204
 Alpha  occ. eigenvalues --   -0.60075  -0.59130  -0.58808  -0.54757  -0.53513
 Alpha  occ. eigenvalues --   -0.52871  -0.51511  -0.50533  -0.48524  -0.47735
 Alpha  occ. eigenvalues --   -0.47008  -0.45784  -0.44853  -0.44638  -0.43657
 Alpha  occ. eigenvalues --   -0.42656  -0.41075  -0.40896  -0.40088  -0.38000
 Alpha  occ. eigenvalues --   -0.37050  -0.35336  -0.34803  -0.34222  -0.31661
 Alpha  occ. eigenvalues --   -0.29707
 Alpha virt. eigenvalues --    0.00483   0.01033   0.03825   0.07240   0.08802
 Alpha virt. eigenvalues --    0.09750   0.10268   0.10906   0.11984   0.12540
 Alpha virt. eigenvalues --    0.13405   0.13530   0.14116   0.14905   0.15457

 Mulliken charges:
               1
     1  C   -0.415623
     2  C   -0.159209
     3  O   -0.330239
     4  C    0.195196
     5  O   -0.327506
     6  C   -0.088761
     7  C   -0.470186
     8  C    0.010017
     9  C   -0.219552
    10  C   -0.137734
    11  C   -0.177204
    12  C    0.064814
    13  Br  -0.117159
    14  C   -0.197961
    15  H    0.147694
    16  H    0.146082
    17  H    0.149274
    18  H    0.166113
    19  H    0.137297
    20  H    0.142458
    21  H    0.142797
    22  H    0.153771
    23  H    0.155963
    24  H    0.153323
    25  H    0.151219
    26  H    0.182496
    27  H    0.166491
    28  H    0.178440
    29  H    0.197692
 Sum of Mulliken charges =  -0.00000

 Dipole moment (field-independent basis, Debye):
    X=              1.9628    Y=              0.9706    Z=             -0.2828  Tot=              2.2078
 Quadrupole moment (field-independent basis, Debye-Ang):
   XX=            -96.3100   YY=            -90.3516   ZZ=            -96.6909
   XY=             -7.6019   XZ=              0.4675   YZ=              1.7597

 Normal termination of Gaussian 16 at Tue Sep 17 12:02:45 2024.
