 Gaussian 16, Revision C.02,

 ----------------------------------------------------------------------
 #p B3LYP/6-31G(d,p) EmpiricalDispersion=GD3BJ opt freq scf(xqc,tight)
 integral(grid=ultrafine)
 ----------------------------------------------------------------------

 ----------------------------------
 opt-freq conformers_unique/conf_ah
 ----------------------------------
 Symbolic Z-matrix:
 Charge =  0 Multiplicity = 1

 SCF Done:  E(RB3LYP) =  -3150.42150418     A.U. after   14 cycles
 SCF Done:  E(RB3LYP) =  -3150.42283043     A.U. after   11 cycles
 SCF Done:  E(RB3LYP) =  -3150.42296893     A.U. after   11 cycles
 SCF Done:  E(RB3LYP) =  -3150.42306622     A.U. after   11 cycles
 SCF Done:  E(RB3LYP) =  -3150.42309693     A.U. after   11 cycles
 SCF Done:  E(RB3LYP) =  -3150.42311691     A.U. after   10 cycles
 SCF Done:  E(RB3LYP) =  -3150.42312010     A.U. after    9 cycles
 SCF Done:  E(RB3LYP) =  -3150.42312207     A.U. after    9 cycles
 SCF Done:  E(RB3LYP) =  -3150.42312448     A.U. after    9 cycles
 SCF Done:  E(RB3LYP) =  -3150.42312829     A.U. after    9 cycles
 SCF Done:  E(RB3LYP) =  -3150.42313052     A.U. after    9 cycles
 SCF Done:  E(RB3LYP) =  -3150.42313166     A.U. after    9 cycles
 SCF Done:  E(RB3LYP) =  -3150.42313231     A.U. after    7 cycles
 SCF Done:  E(RB3LYP) =  -3150.42313233     A.U. after    6 cycles
 Optimization completed.
    -- Stationary point found.
 Normal termination of Gaussian 16 at Tue Sep 17 09:55:15 2024.

 ----------------------------------------------------------------------
 #P Geom=AllCheck Guess=TCheck SCRF=Check GenChk RB3LYP/6-31G(d,p) Freq
 ----------------------------------------------------------------------

 Structure from the checkpoint file:  "smiles_00034_conf_7.chk"
 ----------------------------------
 opt-freq conformers_unique/conf_ah
 ----------------------------------
 Charge =  0 Multiplicity = 1

 SCF Done:  E(RB3LYP) =  -3150.42313233     A.U. after    1 cycles

                      1                      2                      3
                      A                      A                      A
 Frequencies --     18.3773                27.0651                43.5449
 Red. masses --      3.4141                 2.6790                 3.2965
 Frc consts  --      0.0007                 0.0012                 0.0037
 IR Inten    --      0.0681                 0.0041                 0.7293

                      4                      5                      6
                      A                      A                      A
 Frequencies --     75.2840                98.5279               102.3979
 Red. masses --      3.1165                 2.4782                 3.4292
 Frc consts  --      0.0104                 0.0142                 0.0212
 IR Inten    --      0.4494                 0.4201                 0.5430

                      7                      8                      9
                      A                      A                      A
 Frequencies --    161.5238               183.9438               204.7031
 Red. masses --      4.6039                 3.5703                 1.9052
 Frc consts  --      0.0708                 0.0712                 0.0470
 IR Inten    --      2.0305                 2.4679                 0.2624

                     10                     11                     12
                      A                      A                      A
 Frequencies --    229.3100               242.3124               264.4097
 Red. masses --      3.1905                 1.5761                 1.5977
 Frc consts  --      0.0988                 0.0545                 0.0658
 IR Inten    --      1.0719                 0.3567                 0.2011

                     13                     14                     15
                      A                      A                      A
 Frequencies --    299.9397               316.6993               336.3945
 Red. masses --      6.5043                 3.0260                 4.7629
 Frc consts  --      0.3448                 0.1788                 0.3176
 IR Inten    --      0.9572                 9.2671                 5.1508

                     16                     17                     18
                      A                      A                      A
 Frequencies --    365.9649               428.5998               449.0723
 Red. masses --      3.6366                 3.3260                 3.1492
 Frc consts  --      0.2870                 0.3600                 0.3742
 IR Inten    --      2.7420                 3.2147                 1.0173

                     19                     20                     21
                      A                      A                      A
 Frequencies --    499.1936               532.1537               635.7275
 Red. masses --      4.3037                 4.7389                 5.4803
 Frc consts  --      0.6319                 0.7907                 1.3050
 IR Inten    --      6.1131                 2.5886                 4.2422

                     22                     23                     24
                      A                      A                      A
 Frequencies --    679.7950               700.0747               750.8680
 Red. masses --      6.3298                 3.1585                 3.3970
 Frc consts  --      1.7234                 0.9120                 1.1284
 IR Inten    --     19.8012                 7.0402                23.1740

                     25                     26                     27
                      A                      A                      A
 Frequencies --    802.5906               815.4461               823.2631
 Red. masses --      1.4779                 1.1752                 1.0942
 Frc consts  --      0.5609                 0.4604                 0.4369
 IR Inten    --     30.2001                 6.5337                 0.1187

                     28                     29                     30
                      A                      A                      A
 Frequencies --    851.6411               889.9941               914.2006
 Red. masses --      2.4913                 2.6922                 1.7060
 Frc consts  --      1.0646                 1.2564                 0.8401
 IR Inten    --      6.9840                10.9794                 9.4836

                     31                     32                     33
                      A                      A                      A
 Frequencies --    937.0272               962.1006               993.6429
 Red. masses --      1.3451                 2.2274                 1.3103
 Frc consts  --      0.6959                 1.2148                 0.7622
 IR Inten    --      2.5188                 6.7588                 1.3440

                     34                     35                     36
                      A                      A                      A
 Frequencies --   1017.6667              1030.0748              1035.2108
 Red. masses --      5.4507                 3.1621                 3.1243
 Frc consts  --      3.3260                 1.9768                 1.9727
 IR Inten    --      0.9591                22.3670                29.3218

                     37                     38                     39
                      A                      A                      A
 Frequencies --   1085.5498              1097.1234              1106.9520
 Red. masses --      4.8181                 2.1802                 2.7820
 Frc consts  --      3.3452                 1.5462                 2.0085
 IR Inten    --    275.4031                18.4103                75.1759

                     40                     41                     42
                      A                      A                      A
 Frequencies --   1124.0773              1133.8943              1148.7593
 Red. masses --      1.5936                 2.7239                 2.4058
 Frc consts  --      1.1864                 2.0634                 1.8705
 IR Inten    --     24.8820                89.1416                55.5033

                     43                     44                     45
                      A                      A                      A
 Frequencies --   1192.6825              1194.2568              1210.2794
 Red. masses --      1.4431                 1.1866                 1.8760
 Frc consts  --      1.2094                 0.9971                 1.6190
 IR Inten    --      2.8330                11.2286                37.2645

                     46                     47                     48
                      A                      A                      A
 Frequencies --   1226.8377              1299.9903              1306.6633
 Red. masses --      2.4674                 1.1679                 1.3270
 Frc consts  --      2.1880                 1.1629                 1.3349
 IR Inten    --     81.5327                 4.8061                11.9818

                     49                     50                     51
                      A                      A                      A
 Frequencies --   1327.7755              1354.3264              1382.5696
 Red. masses --      1.1632                 4.4198                 1.4359
 Frc consts  --      1.2083                 4.7764                 1.6172
 IR Inten    --     11.8040                 0.7329               109.7290

                     52                     53                     54
                      A                      A                      A
 Frequencies --   1392.7997              1406.0773              1415.4693
 Red. masses --      1.2054                 1.2390                 1.2758
 Frc consts  --      1.3778                 1.4432                 1.5061
 IR Inten    --      3.0857                 0.8065                 1.1079

                     55                     56                     57
                      A                      A                      A
 Frequencies --   1429.2725              1438.4325              1463.8621
 Red. masses --      1.3052                 1.3772                 2.6994
 Frc consts  --      1.5709                 1.6789                 3.4082
 IR Inten    --     14.9183                19.4071                29.1477

                     58                     59                     60
                      A                      A                      A
 Frequencies --   1499.0036              1503.8378              1510.9576
 Red. masses --      1.0403                 1.0430                 1.0529
 Frc consts  --      1.3773                 1.3898                 1.4163
 IR Inten    --      4.3629                 4.8152                 0.5700

                     61                     62                     63
                      A                      A                      A
 Frequencies --   1515.8526              1516.5606              1527.9239
 Red. masses --      2.3793                 1.0525                 1.0859
 Frc consts  --      3.2211                 1.4262                 1.4937
 IR Inten    --     15.5277                 1.5238                 2.5201

                     64                     65                     66
                      A                      A                      A
 Frequencies --   1545.5920              1628.7928              1654.1812
 Red. masses --      1.0896                 6.3475                 6.1788
 Frc consts  --      1.5335                 9.9217                 9.9615
 IR Inten    --      0.1965                30.2006                 8.9526

                     67                     68                     69
                      A                      A                      A
 Frequencies --   3016.7259              3032.6820              3049.9302
 Red. masses --      1.0825                 1.0582                 1.0370
 Frc consts  --      5.8040                 5.7343                 5.6836
 IR Inten    --     38.3860                25.4931                21.3577

                     70                     71                     72
                      A                      A                      A
 Frequencies --   3051.8106              3053.0471              3073.7926
 Red. masses --      1.0600                 1.0355                 1.1053
 Frc consts  --      5.8167                 5.6870                 6.1527
 IR Inten    --     25.7809                25.3654                26.2657

                     73                     74                     75
                      A                      A                      A
 Frequencies --   3099.4545              3121.6204              3128.6873
 Red. masses --      1.1046                 1.1014                 1.1023
 Frc consts  --      6.2520                 6.3235                 6.3572
 IR Inten    --      6.1798                43.6116                25.6362

                     76                     77                     78
                      A                      A                      A
 Frequencies --   3132.1073              3134.3554              3192.0553
 Red. masses --      1.1039                 1.1044                 1.0873
 Frc consts  --      6.3802                 6.3922                 6.5276
 IR Inten    --     35.8573                30.8390                 7.2075

                     79                     80                     81
                      A                      A                      A
 Frequencies --   3211.7309              3223.7387              3249.8445
 Red. masses --      1.0927                 1.0949                 1.0912
 Frc consts  --      6.6410                 6.7041                 6.7903
 IR Inten    --      6.1558                 5.0071                 1.0419

 - Thermochemistry -
 -------------------
 Temperature   298.150 Kelvin.  Pressure   1.00000 Atm.
 Atom     1 has atomic number  6 and mass  12.00000

 Molecular mass:   258.02554 amu.
 Principal axes and moments of inertia in atomic units:
                           1         2         3
     Eigenvalues --  2455.241277145.717938608.00465
           X            0.99955   0.02444  -0.01717
           Y           -0.02389   0.99922   0.03142
           Z            0.01792  -0.03099   0.99936
 This molecule is an asymmetric top.
 Rotational symmetry number  1.
 Warning -- assumption of classical behavior for rotation
           may cause significant error
 Rotational temperatures (Kelvin)      0.03528     0.01212     0.01006
 Rotational constants (GHZ):           0.73506     0.25256     0.20966
 Zero-point vibrational energy     634802.4 (Joules/Mol)
                                  151.72142 (Kcal/Mol)
 Warning -- explicit consideration of  20 degrees of freedom as
           vibrations may cause significant error
 Vibrational temperatures:     26.44    38.94    62.65   108.32   141.76
          (Kelvin)            147.33   232.40   264.65   294.52   329.93
                              348.63   380.43   431.55   455.66   484.00
                              526.54   616.66   646.11   718.23   765.65
                              914.67   978.07  1007.25  1080.33  1154.75
                             1173.25  1184.49  1225.32  1280.50  1315.33
                             1348.17  1384.25  1429.63  1464.20  1482.05
                             1489.44  1561.86  1578.52  1592.66  1617.30
                             1631.42  1652.81  1716.00  1718.27  1741.32
                             1765.15  1870.40  1880.00  1910.37  1948.57
                             1989.21  2003.93  2023.03  2036.54  2056.40
                             2069.58  2106.17  2156.73  2163.69  2173.93
                             2180.97  2181.99  2198.34  2223.76  2343.47
                             2380.00  4340.40  4363.35  4388.17  4390.87
                             4392.65  4422.50  4459.42  4491.32  4501.48
                             4506.40  4509.64  4592.66  4620.96  4638.24
                             4675.80

 Zero-point correction=                           0.241783 (Hartree/Particle)
 Thermal correction to Energy=                    0.256684
 Thermal correction to Enthalpy=                  0.257628
 Thermal correction to Gibbs Free Energy=         0.196502
 Sum of electronic and zero-point Energies=          -3150.181349
 Sum of electronic and thermal Energies=             -3150.166449
 Sum of electronic and thermal Enthalpies=           -3150.165504
 Sum of electronic and thermal Free Energies=        -3150.226631

                     E (Thermal)             CV                S
                      KCal/Mol        Cal/Mol-Kelvin    Cal/Mol-Kelvin
 Total                  161.071             53.714            128.651
 Electronic               0.000              0.000              0.000
 Translational            0.889              2.981             42.543
 Rotational               0.889              2.981             33.379
 Vibrational            159.294             47.752             52.729
 Vibration     1          0.593              1.986              6.802
 Vibration     2          0.593              1.984              6.034
 Vibration     3          0.595              1.980              5.091
 Vibration     4          0.599              1.965              4.010
 Vibration     5          0.604              1.950              3.483
 Vibration     6          0.604              1.947              3.408
 Vibration     7          0.622              1.890              2.532
 Vibration     8          0.631              1.862              2.288
 Vibration     9          0.640              1.833              2.090
 Vibration    10          0.652              1.796              1.884
 Vibration    11          0.659              1.775              1.786
 Vibration    12          0.671              1.738              1.632
 Vibration    13          0.692              1.674              1.417
 Vibration    14          0.704              1.642              1.327
 Vibration    15          0.717              1.603              1.229
 Vibration    16          0.739              1.542              1.097
 Vibration    17          0.790              1.408              0.863
 Vibration    18          0.808              1.363              0.799
 Vibration    19          0.855              1.252              0.660
 Vibration    20          0.887              1.179              0.582

 Optimization completed.
    -- Stationary point found.
 Normal termination of Gaussian 16 at Tue Sep 17 09:58:36 2024.

 ----------------------------------------------------------------------
 #p M062X/def2tzvp geom=check guess=read scf(xqc,tight) integral(grid=u
 ltrafine) scrf(SMD, solvent=1,4-Dioxane) polar prop=efg volume
 ----------------------------------------------------------------------

 ---
 spe
 ---
 Structure from the checkpoint file:  "smiles_00034_conf_7.chk"
 Charge =  0 Multiplicity = 1

 SCF Done:  E(RM062X) =  -3152.81222698     A.U. after   11 cycles

  Exact polarizability:     216.089      -4.175     184.002       6.760     -16.662     135.728
 Approx polarizability:     215.910      -5.337     196.404      12.836     -22.625     158.807

 Normal termination of Gaussian 16 at Tue Sep 17 11:19:30 2024.
 Gaussian 16:  ES64L-G16RevC.02  7-Dec-2021

 ----------------------------------------------------------------------
 #p M062X/def2tzvp geom=check guess=read scf(xqc,tight) integral(grid=u
 ltrafine) scrf(SMD, solvent=1,4-Dioxane) nmr=giao
 ----------------------------------------------------------------------

 ---
 spe
 ---
 Structure from the checkpoint file:  "smiles_00034_conf_7.chk"
 Charge =  0 Multiplicity = 1

                         Standard orientation:
 ---------------------------------------------------------------------
 Center     Atomic      Atomic             Coordinates (Angstroms)
 Number     Number       Type             X           Y           Z
 ---------------------------------------------------------------------
      1          6           0        2.681336    3.228556    0.907572
      2          6           0        2.903013    2.184817   -0.179355
      3          8           0        1.778947    1.305719   -0.309371
      4          6           0        1.808348    0.205666    0.563190
      5          8           0        2.827009   -0.717716    0.236340
      6          6           0        2.747773   -1.260490   -1.088565
      7          6           0        3.906137   -2.225630   -1.252995
      8          6           0        0.427501   -0.429517    0.586223
      9          6           0        0.276092   -1.701731    1.148001
     10          6           0       -0.983446   -2.291862    1.217538
     11          6           0       -2.107083   -1.621946    0.730562
     12          6           0       -1.938909   -0.356808    0.175764
     13         35           0       -3.468465    0.574416   -0.499791
     14          6           0       -0.688476    0.250439    0.096464
     15          1           0        2.576518    2.765736    1.893748
     16          1           0        3.530477    3.918411    0.951807
     17          1           0        1.775097    3.805490    0.703335
     18          1           0        3.012572    2.664898   -1.156058
     19          1           0        3.808117    1.595420    0.008135
     20          1           0        2.077602    0.526096    1.579859
     21          1           0        1.786988   -1.772833   -1.226832
     22          1           0        2.798625   -0.448633   -1.823143
     23          1           0        4.860246   -1.711044   -1.107035
     24          1           0        3.840179   -3.036087   -0.521386
     25          1           0        3.897185   -2.662379   -2.256301
     26          1           0        1.153306   -2.223491    1.515403
     27          1           0       -1.097771   -3.280450    1.651244
     28          1           0       -3.092012   -2.070804    0.779470
     29          1           0       -0.572221    1.232114   -0.341725
 ---------------------------------------------------------------------

 SCF Done:  E(RM062X) =  -3152.81222698     A.U. after    1 cycles

      1  C    Isotropic =   172.6189   Anisotropy =    22.8797

      2  C    Isotropic =   122.6945   Anisotropy =    76.0260

      3  O    Isotropic =   249.9736   Anisotropy =    25.8010

      4  C    Isotropic =    84.4388   Anisotropy =    31.7450

      5  O    Isotropic =   247.7288   Anisotropy =    91.6453

      6  C    Isotropic =   128.1561   Anisotropy =    60.0724

      7  C    Isotropic =   170.9149   Anisotropy =    26.3253

      8  C    Isotropic =    17.8193   Anisotropy =   206.6540

      9  C    Isotropic =    37.5447   Anisotropy =   218.1008

     10  C    Isotropic =    33.4988   Anisotropy =   211.3864

     11  C    Isotropic =    31.5770   Anisotropy =   183.3771

     12  C    Isotropic =    24.2148   Anisotropy =   139.4043

     13  Br   Isotropic =  2079.1393   Anisotropy =  1313.6979

     14  C    Isotropic =    32.5776   Anisotropy =   187.6577

     15  H    Isotropic =    30.4682   Anisotropy =     6.1922

     16  H    Isotropic =    30.9735   Anisotropy =    11.2645

     17  H    Isotropic =    30.6403   Anisotropy =     8.4391

     18  H    Isotropic =    28.1043   Anisotropy =     7.8009

     19  H    Isotropic =    27.7734   Anisotropy =     6.1084

     20  H    Isotropic =    26.0372   Anisotropy =     3.3569

     21  H    Isotropic =    29.0613   Anisotropy =     6.2697

     22  H    Isotropic =    28.4906   Anisotropy =     5.8491

     23  H    Isotropic =    30.6777   Anisotropy =     8.5676

     24  H    Isotropic =    30.7056   Anisotropy =     8.3584

     25  H    Isotropic =    30.9551   Anisotropy =    10.8571

     26  H    Isotropic =    23.5850   Anisotropy =    10.1826

     27  H    Isotropic =    23.6708   Anisotropy =     6.0498

     28  H    Isotropic =    23.6873   Anisotropy =     9.9497

     29  H    Isotropic =    23.2980   Anisotropy =    16.4698

 The electronic state is 1-A.
 Alpha  occ. eigenvalues -- -485.37281 -63.35760 -57.17704 -57.17470 -57.17464
 Alpha  occ. eigenvalues --  -19.63462 -19.63202 -10.64379 -10.60256 -10.58204
 Alpha  occ. eigenvalues --  -10.57642 -10.55873 -10.55499 -10.55302 -10.55241
 Alpha  occ. eigenvalues --  -10.54839 -10.52453 -10.52180  -9.02403  -6.84804
 Alpha  occ. eigenvalues --   -6.83939  -6.83918  -2.88180  -2.87867  -2.87843
 Alpha  occ. eigenvalues --   -2.87036  -2.87036  -1.19599  -1.13027  -0.98057
 Alpha  occ. eigenvalues --   -0.90331  -0.87772  -0.84943  -0.84297  -0.81632
 Alpha  occ. eigenvalues --   -0.76611  -0.71371  -0.70108  -0.67710  -0.65270
 Alpha  occ. eigenvalues --   -0.60356  -0.58550  -0.58161  -0.55906  -0.53586
 Alpha  occ. eigenvalues --   -0.52901  -0.51638  -0.49449  -0.48617  -0.47926
 Alpha  occ. eigenvalues --   -0.47218  -0.46050  -0.44753  -0.43799  -0.43660
 Alpha  occ. eigenvalues --   -0.43034  -0.41678  -0.40866  -0.40112  -0.37699
 Alpha  occ. eigenvalues --   -0.36879  -0.35178  -0.34923  -0.34323  -0.31629
 Alpha  occ. eigenvalues --   -0.29659
 Alpha virt. eigenvalues --    0.00537   0.01079   0.03870   0.07130   0.08288
 Alpha virt. eigenvalues --    0.09656   0.10501   0.11268   0.11756   0.12610
 Alpha virt. eigenvalues --    0.12827   0.13884   0.14255   0.14916   0.15456

 Mulliken charges:
               1
     1  C   -0.419727
     2  C   -0.153632
     3  O   -0.338837
     4  C    0.204524
     5  O   -0.327941
     6  C   -0.126969
     7  C   -0.422131
     8  C    0.036308
     9  C   -0.237794
    10  C   -0.130078
    11  C   -0.181824
    12  C    0.069150
    13  Br  -0.117953
    14  C   -0.206340
    15  H    0.141677
    16  H    0.149903
    17  H    0.150551
    18  H    0.148283
    19  H    0.158665
    20  H    0.146719
    21  H    0.150624
    22  H    0.147389
    23  H    0.146282
    24  H    0.144369
    25  H    0.144025
    26  H    0.185513
    27  H    0.166445
    28  H    0.178483
    29  H    0.194317
 Sum of Mulliken charges =  -0.00000

 Dipole moment (field-independent basis, Debye):
    X=              2.3231    Y=             -0.5509    Z=              0.4957  Tot=              2.4385
 Quadrupole moment (field-independent basis, Debye-Ang):
   XX=            -97.4381   YY=            -88.4433   ZZ=            -96.9776
   XY=              6.6345   XZ=             -2.8634   YZ=             -1.1654

 Normal termination of Gaussian 16 at Tue Sep 17 11:50:16 2024.
