 Gaussian 16, Revision C.02,

 ----------------------------------------------------------------------
 #p B3LYP/6-31G(d,p) EmpiricalDispersion=GD3BJ opt freq scf(xqc,tight)
 integral(grid=ultrafine)
 ----------------------------------------------------------------------

 ----------------------------------
 opt-freq conformers_unique/conf_aa
 ----------------------------------
 Symbolic Z-matrix:
 Charge =  0 Multiplicity = 1

 SCF Done:  E(RB3LYP) =  -3315.32180801     A.U. after   14 cycles
 SCF Done:  E(RB3LYP) =  -3315.32396182     A.U. after   12 cycles
 SCF Done:  E(RB3LYP) =  -3315.32405600     A.U. after   11 cycles
 SCF Done:  E(RB3LYP) =  -3315.32406770     A.U. after   11 cycles
 SCF Done:  E(RB3LYP) =  -3315.32408001     A.U. after    9 cycles
 SCF Done:  E(RB3LYP) =  -3315.32408183     A.U. after    8 cycles
 SCF Done:  E(RB3LYP) =  -3315.32408199     A.U. after    7 cycles
 Optimization completed.
    -- Stationary point found.
 Normal termination of Gaussian 16 at Tue Sep 17 09:57:45 2024.

 ----------------------------------------------------------------------
 #P Geom=AllCheck Guess=TCheck SCRF=Check GenChk RB3LYP/6-31G(d,p) Freq
 ----------------------------------------------------------------------

 Structure from the checkpoint file:  "smiles_00078_conf_0.chk"
 ----------------------------------
 opt-freq conformers_unique/conf_aa
 ----------------------------------
 Charge =  0 Multiplicity = 1

 SCF Done:  E(RB3LYP) =  -3315.32408199     A.U. after    1 cycles

                      1                      2                      3
                      A                      A                      A
 Frequencies --     32.0272                53.9711                59.3693
 Red. masses --      8.3989                 4.1599                 8.6713
 Frc consts  --      0.0051                 0.0071                 0.0180
 IR Inten    --      0.7830                 0.7328                 1.0320

                      4                      5                      6
                      A                      A                      A
 Frequencies --    124.0480               138.7660               161.2180
 Red. masses --      8.5706                 5.1533                10.2431
 Frc consts  --      0.0777                 0.0585                 0.1569
 IR Inten    --      2.0055                 0.1535                 3.6632

                      7                      8                      9
                      A                      A                      A
 Frequencies --    188.6348               190.2271               236.6658
 Red. masses --     16.7273                 6.7966                 6.6097
 Frc consts  --      0.3507                 0.1449                 0.2181
 IR Inten    --      0.1762                 0.3269                 0.1216

                     10                     11                     12
                      A                      A                      A
 Frequencies --    269.0276               340.6334               364.0386
 Red. masses --      7.8263                 6.1949                11.4364
 Frc consts  --      0.3337                 0.4235                 0.8930
 IR Inten    --      1.1153                 0.3301                19.9863

                     13                     14                     15
                      A                      A                      A
 Frequencies --    398.9922               403.6145               423.1821
 Red. masses --      4.4932                 7.6975                 3.0668
 Frc consts  --      0.4214                 0.7388                 0.3236
 IR Inten    --      0.3660                16.6417                 2.7692

                     16                     17                     18
                      A                      A                      A
 Frequencies --    425.4154               464.1814               522.8805
 Red. masses --      3.7672                 4.9592                 2.8869
 Frc consts  --      0.4017                 0.6296                 0.4650
 IR Inten    --      0.2871                 0.0077                11.5094

                     19                     20                     21
                      A                      A                      A
 Frequencies --    541.5806               584.8148               645.7610
 Red. masses --      7.4308                10.2520                 7.0097
 Frc consts  --      1.2841                 2.0658                 1.7222
 IR Inten    --     10.1629                 1.5832                 0.5852

                     22                     23                     24
                      A                      A                      A
 Frequencies --    663.3097               676.8355               711.3413
 Red. masses --      9.1830                 5.2504                 4.7364
 Frc consts  --      2.3805                 1.4171                 1.4121
 IR Inten    --      7.5773                 0.1171                10.0401

                     25                     26                     27
                      A                      A                      A
 Frequencies --    721.2696               732.9655               733.9968
 Red. masses --      3.2960                 6.7010                 4.3753
 Frc consts  --      1.0103                 2.1211                 1.3888
 IR Inten    --     44.6974                11.8483                 2.5134

                     28                     29                     30
                      A                      A                      A
 Frequencies --    782.0652               798.2650               832.8313
 Red. masses --      6.7184                 1.6459                 1.2507
 Frc consts  --      2.4210                 0.6179                 0.5111
 IR Inten    --      1.8389                16.2483                 0.3245

                     31                     32                     33
                      A                      A                      A
 Frequencies --    841.3573               866.1338               898.6612
 Red. masses --      1.6147                 6.4321                 7.3125
 Frc consts  --      0.6734                 2.8430                 3.4794
 IR Inten    --     38.0700                43.0850                21.0063

                     34                     35                     36
                      A                      A                      A
 Frequencies --    910.0065               967.9342               973.1510
 Red. masses --      1.3313                 1.3332                 1.3474
 Frc consts  --      0.6496                 0.7359                 0.7518
 IR Inten    --      0.1078                 2.8659                 0.4560

                     37                     38                     39
                      A                      A                      A
 Frequencies --    974.7401              1009.5490              1031.9967
 Red. masses --      1.3817                 1.3027                 4.5379
 Frc consts  --      0.7735                 0.7822                 2.8475
 IR Inten    --      0.8482                 0.0180                32.5847

                     40                     41                     42
                      A                      A                      A
 Frequencies --   1038.5351              1095.6532              1098.3867
 Red. masses --      2.1574                 3.7368                 2.7656
 Frc consts  --      1.3710                 2.6430                 1.9658
 IR Inten    --      6.2858                70.5490                37.4706

                     43                     44                     45
                      A                      A                      A
 Frequencies --   1113.2089              1138.3468              1150.6428
 Red. masses --      3.0392                 3.0344                 1.4091
 Frc consts  --      2.2190                 2.3167                 1.0992
 IR Inten    --     14.0319                 1.1292                28.4190

                     46                     47                     48
                      A                      A                      A
 Frequencies --   1189.4103              1199.2901              1213.8152
 Red. masses --      1.1715                 2.2203                 1.1448
 Frc consts  --      0.9764                 1.8816                 0.9937
 IR Inten    --      8.2971                 2.2093                 0.6961

                     49                     50                     51
                      A                      A                      A
 Frequencies --   1257.5115              1312.8636              1337.1765
 Red. masses --      4.4536                 1.5734                 1.5350
 Frc consts  --      4.1494                 1.5978                 1.6170
 IR Inten    --     59.1585                 1.0360                 0.1565

                     52                     53                     54
                      A                      A                      A
 Frequencies --   1346.2620              1396.3118              1410.3701
 Red. masses --      4.6578                 7.3229                 6.3922
 Frc consts  --      4.9738                 8.4120                 7.4915
 IR Inten    --      1.2981               464.7331               201.8692

                     55                     56                     57
                      A                      A                      A
 Frequencies --   1451.2674              1509.4405              1509.4418
 Red. masses --      2.9714                 2.5013                 2.6584
 Frc consts  --      3.6873                 3.3577                 3.5687
 IR Inten    --      7.7118                 6.6487                 1.3324

                     58                     59                     60
                      A                      A                      A
 Frequencies --   1538.2776              1630.6709              1650.2763
 Red. masses --      2.4406                 7.4066                 5.7189
 Frc consts  --      3.4026                11.6039                 9.1765
 IR Inten    --    220.8765                 0.2634                 1.1585

                     61                     62                     63
                      A                      A                      A
 Frequencies --   1664.4457              1666.8550              1808.1968
 Red. masses --      6.9925                 7.3654                12.8528
 Frc consts  --     11.4135                12.0571                24.7593
 IR Inten    --     13.7176                 1.5714               481.5276

                     64                     65                     66
                      A                      A                      A
 Frequencies --   1856.9698              3194.8087              3207.8343
 Red. masses --     12.9882                 1.0870                 1.0911
 Frc consts  --     26.3881                 6.5370                 6.6149
 IR Inten    --     29.7214                 1.8772                 8.6604

                     67                     68                     69
                      A                      A                      A
 Frequencies --   3220.0695              3222.1180              3222.3136
 Red. masses --      1.0939                 1.0908                 1.0909
 Frc consts  --      6.6829                 6.6723                 6.6737
 IR Inten    --      3.5511                 2.1534                 1.6053

                     70                     71                     72
                      A                      A                      A
 Frequencies --   3223.1963              3251.6733              3251.7815
 Red. masses --      1.0965                 1.0930                 1.0940
 Frc consts  --      6.7120                 6.8092                 6.8155
 IR Inten    --     10.9775                 0.4470                 0.0865

 - Thermochemistry -
 -------------------
 Temperature   298.150 Kelvin.  Pressure   1.00000 Atm.
 Atom     1 has atomic number  8 and mass  15.99491

 Molecular mass:   300.97384 amu.
 Principal axes and moments of inertia in atomic units:
                           1         2         3
     Eigenvalues --  1361.01519********************
           X            1.00000  -0.00000   0.00000
           Y            0.00000   0.99987  -0.01631
           Z           -0.00000   0.01631   0.99987
 This molecule is an asymmetric top.
 Rotational symmetry number  1.
 Warning -- assumption of classical behavior for rotation
           may cause significant error
 Rotational temperatures (Kelvin)      0.06364     0.00589     0.00546
 Rotational constants (GHZ):           1.32603     0.12277     0.11371
 Zero-point vibrational energy     490904.8 (Joules/Mol)
                                  117.32907 (Kcal/Mol)
 Warning -- explicit consideration of  20 degrees of freedom as
           vibrations may cause significant error
 Vibrational temperatures:     46.08    77.65    85.42   178.48   199.65
          (Kelvin)            231.96   271.40   273.69   340.51   387.07
                              490.10   523.77   574.06   580.71   608.86
                              612.08   667.85   752.31   779.21   841.42
                              929.11   954.35   973.82  1023.46  1037.75
                             1054.57  1056.06  1125.22  1148.53  1198.26
                             1210.53  1246.17  1292.97  1309.30  1392.64
                             1400.15  1402.43  1452.52  1484.81  1494.22
                             1576.40  1580.33  1601.66  1637.83  1655.52
                             1711.30  1725.51  1746.41  1809.28  1888.92
                             1923.90  1936.97  2008.98  2029.21  2088.05
                             2171.75  2171.75  2213.24  2346.17  2374.38
                             2394.77  2398.23  2601.59  2671.77  4596.62
                             4615.36  4632.96  4635.91  4636.19  4637.46
                             4678.43  4678.59

 Zero-point correction=                           0.186976 (Hartree/Particle)
 Thermal correction to Energy=                    0.200897
 Thermal correction to Enthalpy=                  0.201841
 Thermal correction to Gibbs Free Energy=         0.144240
 Sum of electronic and zero-point Energies=          -3315.137106
 Sum of electronic and thermal Energies=             -3315.123185
 Sum of electronic and thermal Enthalpies=           -3315.122241
 Sum of electronic and thermal Free Energies=        -3315.179842

                     E (Thermal)             CV                S
                      KCal/Mol        Cal/Mol-Kelvin    Cal/Mol-Kelvin
 Total                  126.064             53.915            121.232
 Electronic               0.000              0.000              0.000
 Translational            0.889              2.981             43.002
 Rotational               0.889              2.981             34.117
 Vibrational            124.287             47.954             44.112
 Vibration     1          0.594              1.983              5.700
 Vibration     2          0.596              1.976              4.666
 Vibration     3          0.597              1.974              4.478
 Vibration     4          0.610              1.929              3.036
 Vibration     5          0.614              1.915              2.821
 Vibration     6          0.622              1.890              2.535
 Vibration     7          0.633              1.855              2.241
 Vibration     8          0.634              1.853              2.226
 Vibration     9          0.656              1.785              1.828
 Vibration    10          0.673              1.730              1.602
 Vibration    11          0.720              1.594              1.209
 Vibration    12          0.738              1.546              1.105
 Vibration    13          0.765              1.472              0.966
 Vibration    14          0.769              1.462              0.949
 Vibration    15          0.785              1.420              0.881
 Vibration    16          0.787              1.415              0.874
 Vibration    17          0.822              1.330              0.754
 Vibration    18          0.878              1.199              0.603
 Vibration    19          0.897              1.158              0.562
 Vibration    20          0.942              1.064              0.477

 Optimization completed.
    -- Stationary point found.
 Normal termination of Gaussian 16 at Tue Sep 17 10:01:16 2024.

 ----------------------------------------------------------------------
 #p M062X/def2tzvp geom=check guess=read scf(xqc,tight) integral(grid=u
 ltrafine) scrf(SMD, solvent=1,4-Dioxane) polar prop=efg volume
 ----------------------------------------------------------------------

 ---
 spe
 ---
 Structure from the checkpoint file:  "smiles_00078_conf_0.chk"
 Charge =  0 Multiplicity = 1

 SCF Done:  E(RM062X) =  -3317.73677802     A.U. after   12 cycles

  Exact polarizability:     348.299      -0.001     214.684       0.002      -5.865     118.977
 Approx polarizability:     318.103      -0.001     274.143       0.002      -6.862     153.471

 Normal termination of Gaussian 16 at Tue Sep 17 11:54:12 2024.
 Gaussian 16:  ES64L-G16RevC.02  7-Dec-2021

 ----------------------------------------------------------------------
 #p M062X/def2tzvp geom=check guess=read scf(xqc,tight) integral(grid=u
 ltrafine) scrf(SMD, solvent=1,4-Dioxane) nmr=giao
 ----------------------------------------------------------------------

 ---
 spe
 ---
 Structure from the checkpoint file:  "smiles_00078_conf_0.chk"
 Charge =  0 Multiplicity = 1

                         Standard orientation:
 ---------------------------------------------------------------------
 Center     Atomic      Atomic             Coordinates (Angstroms)
 Number     Number       Type             X           Y           Z
 ---------------------------------------------------------------------
      1          8           0        1.529303   -2.288507   -0.339458
      2          6           0        1.936648   -1.158822   -0.173464
      3          6           0        3.346281   -0.688961   -0.104207
      4          6           0        4.526763   -1.407588   -0.214157
      5          6           0        5.725685   -0.692333   -0.105584
      6          6           0        5.725695    0.692269    0.105786
      7          6           0        4.526782    1.407558    0.214242
      8          6           0        3.346290    0.688966    0.104163
      9          6           0        1.936663    1.158872    0.173252
     10          8           0        1.529337    2.288543    0.339378
     11          7           0        1.134709    0.000026   -0.000083
     12          6           0       -0.287026    0.000022   -0.000049
     13          6           0       -0.985590   -1.063185    0.582214
     14          6           0       -2.377593   -1.066725    0.575759
     15          6           0       -3.062332    0.000001    0.000005
     16         35           0       -4.971743   -0.000014    0.000047
     17          6           0       -2.377633    1.066734   -0.575782
     18          6           0       -0.985630    1.063214   -0.582293
     19          1           0        4.511713   -2.479628   -0.377045
     20          1           0        6.672037   -1.217471   -0.185594
     21          1           0        6.672053    1.217379    0.185891
     22          1           0        4.511748    2.479597    0.377133
     23          1           0       -0.445012   -1.889711    1.022450
     24          1           0       -2.924242   -1.889713    1.020063
     25          1           0       -2.924312    1.889710   -1.020070
     26          1           0       -0.445083    1.889743   -1.022562
 ---------------------------------------------------------------------

 SCF Done:  E(RM062X) =  -3317.73677802     A.U. after    1 cycles

      1  O    Isotropic =  -189.0190   Anisotropy =   841.4529

      2  C    Isotropic =    -2.6201   Anisotropy =   107.1827

      3  C    Isotropic =    30.9642   Anisotropy =   191.4816

      4  C    Isotropic =    39.5311   Anisotropy =   223.1972

      5  C    Isotropic =    26.5775   Anisotropy =   228.5399

      6  C    Isotropic =    26.5771   Anisotropy =   228.5390

      7  C    Isotropic =    39.5309   Anisotropy =   223.1969

      8  C    Isotropic =    30.9646   Anisotropy =   191.4814

      9  C    Isotropic =    -2.6199   Anisotropy =   107.1822

     10  O    Isotropic =  -189.0202   Anisotropy =   841.4568

     11  N    Isotropic =    45.7267   Anisotropy =   145.6220

     12  C    Isotropic =    31.7775   Anisotropy =   168.4624

     13  C    Isotropic =    38.0350   Anisotropy =   203.3215

     14  C    Isotropic =    31.3294   Anisotropy =   185.9624

     15  C    Isotropic =    26.6498   Anisotropy =   139.8096

     16  Br   Isotropic =  2085.0191   Anisotropy =  1287.3761

     17  C    Isotropic =    31.3295   Anisotropy =   185.9628

     18  C    Isotropic =    38.0353   Anisotropy =   203.3187

     19  H    Isotropic =    22.9668   Anisotropy =     7.2767

     20  H    Isotropic =    23.1495   Anisotropy =     6.5370

     21  H    Isotropic =    23.1495   Anisotropy =     6.5370

     22  H    Isotropic =    22.9669   Anisotropy =     7.2767

     23  H    Isotropic =    23.2157   Anisotropy =    10.0769

     24  H    Isotropic =    23.5121   Anisotropy =    10.3421

     25  H    Isotropic =    23.5121   Anisotropy =    10.3420

     26  H    Isotropic =    23.2158   Anisotropy =    10.0765

 The electronic state is 1-A.
 Alpha  occ. eigenvalues -- -485.37575 -63.36053 -57.17998 -57.17762 -57.17756
 Alpha  occ. eigenvalues --  -19.63916 -19.63916 -14.81713 -10.68282 -10.68280
 Alpha  occ. eigenvalues --  -10.60519 -10.60406 -10.57822 -10.57746 -10.57408
 Alpha  occ. eigenvalues --  -10.57408 -10.57132 -10.57058 -10.55992 -10.55988
 Alpha  occ. eigenvalues --  -10.55845 -10.55844  -9.02697  -6.85104  -6.84230
 Alpha  occ. eigenvalues --   -6.84209  -2.88480  -2.88164  -2.88140  -2.87326
 Alpha  occ. eigenvalues --   -2.87325  -1.20832  -1.19095  -1.08794  -1.00036
 Alpha  occ. eigenvalues --   -0.97865  -0.91753  -0.88129  -0.87706  -0.86227
 Alpha  occ. eigenvalues --   -0.82146  -0.77090  -0.74990  -0.72365  -0.69046
 Alpha  occ. eigenvalues --   -0.68990  -0.65899  -0.61362  -0.60151  -0.58114
 Alpha  occ. eigenvalues --   -0.57356  -0.55198  -0.54214  -0.53748  -0.53154
 Alpha  occ. eigenvalues --   -0.52736  -0.52499  -0.50666  -0.50229  -0.48786
 Alpha  occ. eigenvalues --   -0.47297  -0.45634  -0.45223  -0.44252  -0.43189
 Alpha  occ. eigenvalues --   -0.42687  -0.39987  -0.37729  -0.36128  -0.35603
 Alpha  occ. eigenvalues --   -0.35171  -0.33686  -0.33675  -0.32350  -0.28811
 Alpha virt. eigenvalues --   -0.06034  -0.02618   0.00693   0.01090   0.03633
 Alpha virt. eigenvalues --    0.05641   0.08169   0.09109   0.10507   0.10670
 Alpha virt. eigenvalues --    0.10683   0.11408   0.13044   0.13078   0.13399

 Mulliken charges:
               1
     1  O   -0.323114
     2  C    0.241065
     3  C    0.061770
     4  C   -0.220787
     5  C   -0.126998
     6  C   -0.126998
     7  C   -0.220790
     8  C    0.061782
     9  C    0.241054
    10  O   -0.323108
    11  N   -0.132367
    12  C    0.208032
    13  C   -0.202897
    14  C   -0.157579
    15  C    0.028550
    16  Br  -0.111630
    17  C   -0.157578
    18  C   -0.202900
    19  H    0.182206
    20  H    0.175191
    21  H    0.175191
    22  H    0.182207
    23  H    0.191679
    24  H    0.183169
    25  H    0.183169
    26  H    0.191679
 Sum of Mulliken charges =  -0.00000

 Dipole moment (field-independent basis, Debye):
    X=              5.5964    Y=             -0.0000    Z=             -0.0001  Tot=              5.5964
 Quadrupole moment (field-independent basis, Debye-Ang):
   XX=            -87.8689   YY=           -118.7655   ZZ=           -116.7551
   XY=             -0.0004   XZ=              0.0007   YZ=             -5.6739

 Normal termination of Gaussian 16 at Tue Sep 17 12:36:28 2024.
