 Gaussian 16, Revision C.02,

 ----------------------------------------------------------------------
 #p B3LYP/6-31G(d,p) EmpiricalDispersion=GD3BJ opt freq scf(xqc,tight)
 integral(grid=ultrafine)
 ----------------------------------------------------------------------

 ----------------------------------
 opt-freq conformers_unique/conf_aa
 ----------------------------------
 Symbolic Z-matrix:
 Charge =  0 Multiplicity = 1

 SCF Done:  E(RB3LYP) =  -3157.29765232     A.U. after   14 cycles
 SCF Done:  E(RB3LYP) =  -3157.30040859     A.U. after   12 cycles
 SCF Done:  E(RB3LYP) =  -3157.30081053     A.U. after   10 cycles
 SCF Done:  E(RB3LYP) =  -3157.30084592     A.U. after   11 cycles
 SCF Done:  E(RB3LYP) =  -3157.30090879     A.U. after    9 cycles
 SCF Done:  E(RB3LYP) =  -3157.30091173     A.U. after    8 cycles
 SCF Done:  E(RB3LYP) =  -3157.30091190     A.U. after    7 cycles
 SCF Done:  E(RB3LYP) =  -3157.30091195     A.U. after    6 cycles
 Optimization completed.
    -- Stationary point found.
 Normal termination of Gaussian 16 at Tue Sep 17 09:52:08 2024.

 ----------------------------------------------------------------------
 #P Geom=AllCheck Guess=TCheck SCRF=Check GenChk RB3LYP/6-31G(d,p) Freq
 ----------------------------------------------------------------------

 Structure from the checkpoint file:  "smiles_00105_conf_0.chk"
 ----------------------------------
 opt-freq conformers_unique/conf_aa
 ----------------------------------
 Charge =  0 Multiplicity = 1

 SCF Done:  E(RB3LYP) =  -3157.30091195     A.U. after    1 cycles

                      1                      2                      3
                      A                      A                      A
 Frequencies --     29.4624                43.1816                81.2019
 Red. masses --      2.8329                 3.6508                 2.9525
 Frc consts  --      0.0014                 0.0040                 0.0115
 IR Inten    --      0.0026                 0.0569                 0.4268

                      4                      5                      6
                      A                      A                      A
 Frequencies --     88.9246               101.5826               133.1418
 Red. masses --      2.5777                 3.4100                 2.9866
 Frc consts  --      0.0120                 0.0207                 0.0312
 IR Inten    --      0.0040                 0.0249                 0.0976

                      7                      8                      9
                      A                      A                      A
 Frequencies --    150.9004               159.1293               177.8759
 Red. masses --      3.4170                 3.1448                 5.8934
 Frc consts  --      0.0458                 0.0469                 0.1099
 IR Inten    --      0.0097                 0.3584                 0.2757

                     10                     11                     12
                      A                      A                      A
 Frequencies --    193.7793               229.9424               237.5523
 Red. masses --      3.2725                 3.8236                 1.0883
 Frc consts  --      0.0724                 0.1191                 0.0362
 IR Inten    --      0.0625                 0.7705                 0.0079

                     13                     14                     15
                      A                      A                      A
 Frequencies --    252.3048               257.1623               259.2429
 Red. masses --      1.1655                 1.1423                 1.0547
 Frc consts  --      0.0437                 0.0445                 0.0418
 IR Inten    --      0.0926                 0.1253                 0.0649

                     16                     17                     18
                      A                      A                      A
 Frequencies --    278.8073               286.8224               292.8783
 Red. masses --      1.6396                 1.0489                 1.3123
 Frc consts  --      0.0751                 0.0508                 0.0663
 IR Inten    --      0.0383                 0.1783                 0.1497

                     19                     20                     21
                      A                      A                      A
 Frequencies --    311.4977               333.8787               349.1396
 Red. masses --      3.1377                 2.9816                 2.7525
 Frc consts  --      0.1794                 0.1958                 0.1977
 IR Inten    --      0.0132                 1.4698                 0.8045

                     22                     23                     24
                      A                      A                      A
 Frequencies --    378.2926               386.8796               405.1827
 Red. masses --      3.5592                 2.5016                 4.1419
 Frc consts  --      0.3001                 0.2206                 0.4006
 IR Inten    --      0.5648                 0.1195                 1.8747

                     25                     26                     27
                      A                      A                      A
 Frequencies --    440.4789               480.4415               525.0069
 Red. masses --      2.4854                 2.8221                 4.3891
 Frc consts  --      0.2841                 0.3838                 0.7128
 IR Inten    --      0.0161                 0.1880                 2.1107

                     28                     29                     30
                      A                      A                      A
 Frequencies --    571.0631               608.8519               627.1160
 Red. masses --      3.0598                 3.3517                 3.1084
 Frc consts  --      0.5879                 0.7320                 0.7202
 IR Inten    --      0.3638                 6.7160                 3.9248

                     31                     32                     33
                      A                      A                      A
 Frequencies --    646.2785               664.4674               771.3317
 Red. masses --      3.7409                 3.7212                 3.4421
 Frc consts  --      0.9206                 0.9680                 1.2066
 IR Inten    --      0.3860                 2.4686                 2.2330

                     34                     35                     36
                      A                      A                      A
 Frequencies --    830.3113               851.1400               896.0615
 Red. masses --      3.6507                 3.1472                 2.4412
 Frc consts  --      1.4829                 1.3433                 1.1548
 IR Inten    --      0.4951                 0.6797                 0.1071

                     37                     38                     39
                      A                      A                      A
 Frequencies --    906.3432               910.9493               937.3792
 Red. masses --      1.6086                 1.3794                 1.1800
 Frc consts  --      0.7785                 0.6744                 0.6109
 IR Inten    --     11.4818                 0.9813                 0.7965

                     40                     41                     42
                      A                      A                      A
 Frequencies --    940.9634               942.4506               956.4747
 Red. masses --      1.2910                 1.1871                 2.0909
 Frc consts  --      0.6735                 0.6212                 1.1270
 IR Inten    --      0.0953                 1.9438                 4.1892

                     43                     44                     45
                      A                      A                      A
 Frequencies --    960.8148               969.7381               977.8673
 Red. masses --      2.1356                 1.4961                 1.4766
 Frc consts  --      1.1616                 0.8289                 0.8319
 IR Inten    --      7.6477                 0.0895                 0.0619

                     46                     47                     48
                      A                      A                      A
 Frequencies --    981.0303              1034.4792              1085.9407
 Red. masses --      1.5409                 7.5948                 1.5316
 Frc consts  --      0.8737                 4.7886                 1.0642
 IR Inten    --      4.6349                47.5703                12.2541

                     49                     50                     51
                      A                      A                      A
 Frequencies --   1103.0078              1130.0028              1130.8481
 Red. masses --      1.6152                 2.2826                 1.6930
 Frc consts  --      1.1578                 1.7173                 1.2756
 IR Inten    --      2.8629                 1.2104                 9.1890

                     52                     53                     54
                      A                      A                      A
 Frequencies --   1133.0865              1142.3240              1174.3334
 Red. masses --      2.2500                 2.1835                 1.7802
 Frc consts  --      1.7020                 1.6787                 1.4465
 IR Inten    --      0.8099                 7.5307                 2.1309

                     55                     56                     57
                      A                      A                      A
 Frequencies --   1189.5648              1208.1720              1225.7883
 Red. masses --      1.9132                 1.9208                 1.6043
 Frc consts  --      1.5951                 1.6520                 1.4203
 IR Inten    --      2.5120                11.0353                 1.0900

                     58                     59                     60
                      A                      A                      A
 Frequencies --   1283.8508              1302.7229              1316.5566
 Red. masses --      1.5203                 2.3844                 4.1188
 Frc consts  --      1.4764                 2.3841                 4.2063
 IR Inten    --      9.4408                 1.2028                 1.6141

                     61                     62                     63
                      A                      A                      A
 Frequencies --   1342.2157              1344.0472              1352.7196
 Red. masses --      1.4033                 1.3878                 1.3268
 Frc consts  --      1.4895                 1.4771                 1.4304
 IR Inten    --      5.3801                 1.3163                 2.4600

                     64                     65                     66
                      A                      A                      A
 Frequencies --   1360.5581              1379.9712              1394.6041
 Red. masses --      1.5857                 1.9171                 1.5718
 Frc consts  --      1.7295                 2.1510                 1.8011
 IR Inten    --     14.4530                 4.2900                 6.1357

                     67                     68                     69
                      A                      A                      A
 Frequencies --   1409.9939              1410.7179              1412.5722
 Red. masses --      1.2474                 1.2447                 1.2338
 Frc consts  --      1.4611                 1.4595                 1.4506
 IR Inten    --      6.9238                 0.9866                 3.6533

                     70                     71                     72
                      A                      A                      A
 Frequencies --   1430.9624              1432.2959              1433.5809
 Red. masses --      1.2457                 1.2375                 1.2317
 Frc consts  --      1.5028                 1.4958                 1.4915
 IR Inten    --      2.2110                 6.1446                 0.4702

                     73                     74                     75
                      A                      A                      A
 Frequencies --   1472.1739              1474.9724              1501.2592
 Red. masses --      2.5178                 2.4924                 1.0439
 Frc consts  --      3.2150                 3.1947                 1.3862
 IR Inten    --     19.9968                21.0577                 0.1017

                     76                     77                     78
                      A                      A                      A
 Frequencies --   1503.1891              1504.2115              1505.1497
 Red. masses --      1.0439                 1.0457                 1.0479
 Frc consts  --      1.3898                 1.3940                 1.3987
 IR Inten    --      3.3494                 3.2472                 0.8843

                     79                     80                     81
                      A                      A                      A
 Frequencies --   1507.7509              1508.6753              1516.9103
 Red. masses --      1.0617                 1.0938                 1.0490
 Frc consts  --      1.4220                 1.4669                 1.4221
 IR Inten    --      0.2416                 3.6082                 7.2510

                     82                     83                     84
                      A                      A                      A
 Frequencies --   1523.1700              1523.4591              1524.1406
 Red. masses --      1.0481                 1.0517                 1.0702
 Frc consts  --      1.4327                 1.4382                 1.4647
 IR Inten    --     11.8051                 2.0964                 4.1327

                     85                     86                     87
                      A                      A                      A
 Frequencies --   1528.1382              1529.4271              1629.0753
 Red. masses --      1.0570                 1.0603                 7.4914
 Frc consts  --      1.4543                 1.4613                11.7137
 IR Inten    --      2.5011                 5.0253                 7.6858

                     88                     89                     90
                      A                      A                      A
 Frequencies --   1646.8579              3034.0773              3040.1761
 Red. masses --      5.1620                 1.0843                 1.0347
 Frc consts  --      8.2486                 5.8812                 5.6347
 IR Inten    --      4.1849                15.2633                22.0203

                     91                     92                     93
                      A                      A                      A
 Frequencies --   3041.4350              3041.6941              3044.0826
 Red. masses --      1.0356                 1.0356                 1.0355
 Frc consts  --      5.6441                 5.6450                 5.6537
 IR Inten    --     13.5219                35.5685                27.8924

                     94                     95                     96
                      A                      A                      A
 Frequencies --   3044.9477              3045.3659              3059.1036
 Red. masses --      1.0383                 1.0383                 1.0811
 Frc consts  --      5.6719                 5.6733                 5.9609
 IR Inten    --     49.9601                10.3182                 5.4587

                     97                     98                     99
                      A                      A                      A
 Frequencies --   3059.5563              3108.8577              3108.9067
 Red. masses --      1.0813                 1.1025                 1.1024
 Frc consts  --      5.9637                 6.2782                 6.2776
 IR Inten    --      6.4209                 0.2384                 1.9050

                    100                    101                    102
                      A                      A                      A
 Frequencies --   3109.2217              3114.8818              3115.6792
 Red. masses --      1.1024                 1.1017                 1.1014
 Frc consts  --      6.2791                 6.2982                 6.2996
 IR Inten    --      2.2572               105.9681                19.2891

                    103                    104                    105
                      A                      A                      A
 Frequencies --   3116.1597              3121.1712              3122.6051
 Red. masses --      1.1013                 1.1029                 1.1032
 Frc consts  --      6.3008                 6.3302                 6.3375
 IR Inten    --     80.9306                19.5520                32.1463

                    106                    107                    108
                      A                      A                      A
 Frequencies --   3122.7524              3122.8899              3137.8327
 Red. masses --      1.1030                 1.1026                 1.1010
 Frc consts  --      6.3374                 6.3355                 6.3868
 IR Inten    --     46.2440                14.9556                27.2674

                    109                    110                    111
                      A                      A                      A
 Frequencies --   3137.9690              3199.0886              3206.2308
 Red. masses --      1.1010                 1.0887                 1.0883
 Frc consts  --      6.3875                 6.5649                 6.5918
 IR Inten    --      8.3971                10.0799                 9.6242

 - Thermochemistry -
 -------------------
 Temperature   298.150 Kelvin.  Pressure   1.00000 Atm.
 Atom     1 has atomic number  6 and mass  12.00000

 Molecular mass:   282.09831 amu.
 Principal axes and moments of inertia in atomic units:
                           1         2         3
     Eigenvalues --  3833.632305638.917508503.29995
           X            0.99827  -0.05785   0.01013
           Y            0.05782   0.99832   0.00305
           Z           -0.01029  -0.00245   0.99994
 This molecule is an asymmetric top.
 Rotational symmetry number  1.
 Warning -- assumption of classical behavior for rotation
           may cause significant error
 Rotational temperatures (Kelvin)      0.02259     0.01536     0.01019
 Rotational constants (GHZ):           0.47077     0.32005     0.21224
 Zero-point vibrational energy     906969.7 (Joules/Mol)
                                  216.77095 (Kcal/Mol)
 Warning -- explicit consideration of  29 degrees of freedom as
           vibrations may cause significant error
 Vibrational temperatures:     42.39    62.13   116.83   127.94   146.15
          (Kelvin)            191.56   217.11   228.95   255.92   278.81
                              330.84   341.78   363.01   370.00   372.99
                              401.14   412.67   421.39   448.18   480.38
                              502.33   544.28   556.63   582.97   633.75
                              691.25   755.37   821.63   876.00   902.28
                              929.85   956.02  1109.77  1194.63  1224.60
                             1289.23  1304.03  1310.65  1348.68  1353.84
                             1355.98  1376.15  1382.40  1395.24  1406.93
                             1411.48  1488.38  1562.43  1586.98  1625.82
                             1627.04  1630.26  1643.55  1689.60  1711.52
                             1738.29  1763.64  1847.17  1874.33  1894.23
                             1931.15  1933.78  1946.26  1957.54  1985.47
                             2006.52  2028.67  2029.71  2032.38  2058.84
                             2060.75  2062.60  2118.13  2122.16  2159.98
                             2162.75  2164.22  2165.57  2169.32  2170.65
                             2182.50  2191.50  2191.92  2192.90  2198.65
                             2200.50  2343.88  2369.46  4365.36  4374.14
                             4375.95  4376.32  4379.76  4381.00  4381.60
                             4401.37  4402.02  4472.95  4473.02  4473.48
                             4481.62  4482.77  4483.46  4490.67  4492.73
                             4492.94  4493.14  4514.64  4514.84  4602.78
                             4613.05

 Zero-point correction=                           0.345446 (Hartree/Particle)
 Thermal correction to Energy=                    0.363870
 Thermal correction to Enthalpy=                  0.364814
 Thermal correction to Gibbs Free Energy=         0.299166
 Sum of electronic and zero-point Energies=          -3156.955465
 Sum of electronic and thermal Energies=             -3156.937042
 Sum of electronic and thermal Enthalpies=           -3156.936098
 Sum of electronic and thermal Free Energies=        -3157.001746

                     E (Thermal)             CV                S
                      KCal/Mol        Cal/Mol-Kelvin    Cal/Mol-Kelvin
 Total                  228.332             69.622            138.167
 Electronic               0.000              0.000              0.000
 Translational            0.889              2.981             42.809
 Rotational               0.889              2.981             33.574
 Vibrational            226.554             63.660             61.784
 Vibration     1          0.593              1.984              5.865
 Vibration     2          0.595              1.980              5.108
 Vibration     3          0.600              1.962              3.862
 Vibration     4          0.602              1.957              3.684
 Vibration     5          0.604              1.948              3.424
 Vibration     6          0.613              1.920              2.900
 Vibration     7          0.618              1.902              2.661
 Vibration     8          0.621              1.892              2.560
 Vibration     9          0.628              1.870              2.351
 Vibration    10          0.635              1.849              2.191
 Vibration    11          0.652              1.795              1.879
 Vibration    12          0.656              1.783              1.821
 Vibration    13          0.664              1.759              1.714
 Vibration    14          0.667              1.751              1.681
 Vibration    15          0.668              1.747              1.667
 Vibration    16          0.679              1.713              1.541
 Vibration    17          0.684              1.698              1.493
 Vibration    18          0.688              1.687              1.457
 Vibration    19          0.700              1.652              1.354
 Vibration    20          0.715              1.608              1.241
 Vibration    21          0.726              1.577              1.170
 Vibration    22          0.749              1.516              1.046
 Vibration    23          0.755              1.498              1.012
 Vibration    24          0.770              1.459              0.944
 Vibration    25          0.800              1.382              0.825
 Vibration    26          0.837              1.293              0.709
 Vibration    27          0.880              1.195              0.598
 Vibration    28          0.927              1.094              0.502
 Vibration    29          0.968              1.013              0.435

                           ! Non-Optimized Parameters !
 Normal termination of Gaussian 16 at Tue Sep 17 09:59:02 2024.

 ----------------------------------------------------------------------
 #p M062X/def2tzvp geom=check guess=read scf(xqc,tight) integral(grid=u
 ltrafine) scrf(SMD, solvent=1,4-Dioxane) polar prop=efg volume
 ----------------------------------------------------------------------

 ---
 spe
 ---
 Structure from the checkpoint file:  "smiles_00105_conf_0.chk"
 Charge =  0 Multiplicity = 1

 SCF Done:  E(RM062X) =  -3159.60441974     A.U. after   12 cycles

  Exact polarizability:     269.542       0.043     250.757       2.055       0.414     169.339
 Approx polarizability:     277.740       4.069     257.333      -2.991      -0.840     196.266

 Normal termination of Gaussian 16 at Tue Sep 17 12:14:59 2024.
 Gaussian 16:  ES64L-G16RevC.02  7-Dec-2021

 ----------------------------------------------------------------------
 #p M062X/def2tzvp geom=check guess=read scf(xqc,tight) integral(grid=u
 ltrafine) scrf(SMD, solvent=1,4-Dioxane) nmr=giao
 ----------------------------------------------------------------------

 ---
 spe
 ---
 Structure from the checkpoint file:  "smiles_00105_conf_0.chk"
 Charge =  0 Multiplicity = 1

                         Standard orientation:
 ---------------------------------------------------------------------
 Center     Atomic      Atomic             Coordinates (Angstroms)
 Number     Number       Type             X           Y           Z
 ---------------------------------------------------------------------
      1          6           0       -4.103882   -0.354012    1.367647
      2          6           0       -3.468049   -0.897784    0.077765
      3          6           0       -4.233890   -0.412158   -1.163902
      4          6           0       -1.992236   -0.548650   -0.006781
      5          6           0       -1.024750   -1.551355   -0.045618
      6          6           0        0.344416   -1.269539   -0.124139
      7          6           0        1.378842   -2.385323   -0.120508
      8          6           0        0.853382   -3.722363   -0.654503
      9          6           0        1.963932   -2.553928    1.294695
     10          6           0        0.709769    0.083093   -0.160506
     11         35           0        2.588149    0.523652   -0.246510
     12          6           0       -0.220243    1.134586   -0.131582
     13          6           0        0.212390    2.593390   -0.136677
     14          6           0       -0.851809    3.555121   -0.676596
     15          6           0        0.661213    3.012678    1.276218
     16          6           0       -1.570124    0.782121   -0.052560
     17          1           0       -5.152183   -0.661383    1.442620
     18          1           0       -4.075286    0.740544    1.389241
     19          1           0       -3.573867   -0.718817    2.252327
     20          1           0       -3.540172   -1.992497    0.106745
     21          1           0       -4.207975    0.680088   -1.239309
     22          1           0       -5.284137   -0.718433   -1.116325
     23          1           0       -3.797328   -0.819969   -2.080272
     24          1           0       -1.347021   -2.586653   -0.016135
     25          1           0        2.193889   -2.064651   -0.778371
     26          1           0        0.385281   -3.609416   -1.636959
     27          1           0        1.681488   -4.430904   -0.750985
     28          1           0        0.120412   -4.173946    0.022354
     29          1           0        1.182446   -2.864980    1.996169
     30          1           0        2.393397   -1.615046    1.651326
     31          1           0        2.750834   -3.315398    1.298606
     32          1           0        1.085149    2.663786   -0.794889
     33          1           0       -0.424044    4.556764   -0.780436
     34          1           0       -1.708480    3.639778    0.000473
     35          1           0       -1.222220    3.239291   -1.656486
     36          1           0       -0.177809    2.949058    1.977340
     37          1           0        1.028833    4.044136    1.274156
     38          1           0        1.462173    2.363856    1.637575
     39          1           0       -2.312353    1.571701   -0.028631
 ---------------------------------------------------------------------

 SCF Done:  E(RM062X) =  -3159.60441974     A.U. after    1 cycles

      1  C    Isotropic =   160.0150   Anisotropy =    36.4764

      2  C    Isotropic =   145.6919   Anisotropy =    26.9590

      3  C    Isotropic =   159.6790   Anisotropy =    36.8642

      4  C    Isotropic =    10.7663   Anisotropy =   240.0491

      5  C    Isotropic =    40.7347   Anisotropy =   171.0704

      6  C    Isotropic =    11.5900   Anisotropy =   218.5336

      7  C    Isotropic =   148.6807   Anisotropy =    18.2416

      8  C    Isotropic =   164.7275   Anisotropy =    30.9319

      9  C    Isotropic =   160.9840   Anisotropy =    35.4876

     10  C    Isotropic =    27.0940   Anisotropy =    87.8793

     11  Br   Isotropic =  2270.5558   Anisotropy =   772.3509

     12  C    Isotropic =    11.6129   Anisotropy =   220.5160

     13  C    Isotropic =   148.3597   Anisotropy =    18.1034

     14  C    Isotropic =   164.5124   Anisotropy =    31.2695

     15  C    Isotropic =   160.8564   Anisotropy =    35.6729

     16  C    Isotropic =    42.8097   Anisotropy =   201.3374

     17  H    Isotropic =    30.6359   Anisotropy =    10.7375

     18  H    Isotropic =    30.6304   Anisotropy =     6.3903

     19  H    Isotropic =    30.7286   Anisotropy =     8.2267

     20  H    Isotropic =    29.0195   Anisotropy =     7.4573

     21  H    Isotropic =    30.6384   Anisotropy =     6.3556

     22  H    Isotropic =    30.6303   Anisotropy =    10.7674

     23  H    Isotropic =    30.7099   Anisotropy =     8.3130

     24  H    Isotropic =    24.0566   Anisotropy =    13.4553

     25  H    Isotropic =    28.4255   Anisotropy =     9.7421

     26  H    Isotropic =    30.6531   Anisotropy =     9.4754

     27  H    Isotropic =    30.5755   Anisotropy =    10.4185

     28  H    Isotropic =    30.3823   Anisotropy =     7.7488

     29  H    Isotropic =    31.3289   Anisotropy =     7.6395

     30  H    Isotropic =    30.0496   Anisotropy =     6.3605

     31  H    Isotropic =    30.6607   Anisotropy =    10.8985

     32  H    Isotropic =    28.4255   Anisotropy =     9.7869

     33  H    Isotropic =    30.5451   Anisotropy =    10.4332

     34  H    Isotropic =    30.3561   Anisotropy =     7.6586

     35  H    Isotropic =    30.6443   Anisotropy =     9.3108

     36  H    Isotropic =    31.3478   Anisotropy =     7.5124

     37  H    Isotropic =    30.6505   Anisotropy =    10.9207

     38  H    Isotropic =    30.0559   Anisotropy =     6.4218

     39  H    Isotropic =    23.9076   Anisotropy =    15.7595

 The electronic state is 1-A.
 Alpha  occ. eigenvalues -- -485.36785 -63.35245 -57.17187 -57.16964 -57.16949
 Alpha  occ. eigenvalues --  -10.59194 -10.55607 -10.55573 -10.54606 -10.54304
 Alpha  occ. eigenvalues --  -10.54301 -10.54289 -10.53657 -10.53646 -10.52163
 Alpha  occ. eigenvalues --  -10.52153 -10.52134 -10.52120 -10.51918 -10.51916
 Alpha  occ. eigenvalues --   -9.01862  -6.84242  -6.83424  -6.83376  -2.87620
 Alpha  occ. eigenvalues --   -2.87333  -2.87281  -2.86518  -2.86517  -0.98167
 Alpha  occ. eigenvalues --   -0.91947  -0.91493  -0.87606  -0.86833  -0.81904
 Alpha  occ. eigenvalues --   -0.79743  -0.77249  -0.77182  -0.77086  -0.71715
 Alpha  occ. eigenvalues --   -0.68956  -0.67992  -0.62869  -0.61676  -0.56669
 Alpha  occ. eigenvalues --   -0.55639  -0.52393  -0.52039  -0.50659  -0.50287
 Alpha  occ. eigenvalues --   -0.49934  -0.49307  -0.48459  -0.47185  -0.46096
 Alpha  occ. eigenvalues --   -0.45208  -0.44790  -0.44440  -0.43298  -0.43031
 Alpha  occ. eigenvalues --   -0.42799  -0.41890  -0.40512  -0.40154  -0.40009
 Alpha  occ. eigenvalues --   -0.39629  -0.38669  -0.38619  -0.37499  -0.36712
 Alpha  occ. eigenvalues --   -0.35798  -0.33718  -0.29565  -0.28178
 Alpha virt. eigenvalues --    0.01774   0.02146   0.04478   0.06124   0.07677
 Alpha virt. eigenvalues --    0.08231   0.10310   0.10396   0.10787   0.11810
 Alpha virt. eigenvalues --    0.12132   0.12569   0.13200   0.13701   0.13801

 Mulliken charges:
               1
     1  C   -0.437988
     2  C   -0.221431
     3  C   -0.438202
     4  C    0.087834
     5  C   -0.194169
     6  C    0.163425
     7  C   -0.180306
     8  C   -0.484895
     9  C   -0.431421
    10  C   -0.127773
    11  Br  -0.138680
    12  C    0.152446
    13  C   -0.179124
    14  C   -0.486879
    15  C   -0.431046
    16  C   -0.275387
    17  H    0.151940
    18  H    0.146233
    19  H    0.157556
    20  H    0.132309
    21  H    0.146549
    22  H    0.151761
    23  H    0.157503
    24  H    0.182959
    25  H    0.151971
    26  H    0.172202
    27  H    0.162668
    28  H    0.148672
    29  H    0.149111
    30  H    0.157533
    31  H    0.151017
    32  H    0.151504
    33  H    0.163438
    34  H    0.147804
    35  H    0.173032
    36  H    0.149233
    37  H    0.151135
    38  H    0.157342
    39  H    0.210120
 Sum of Mulliken charges =  -0.00000

 Dipole moment (field-independent basis, Debye):
    X=             -1.8892    Y=             -0.4735    Z=              0.1148  Tot=              1.9510
 Quadrupole moment (field-independent basis, Debye-Ang):
   XX=           -110.9775   YY=           -106.1710   ZZ=           -117.0651
   XY=             -0.6540   XZ=             -0.2519   YZ=             -0.1244

 Normal termination of Gaussian 16 at Tue Sep 17 13:04:53 2024.
