 Gaussian 16, Revision C.02,

 ----------------------------------------------------------------------
 #p B3LYP/6-31G(d,p) EmpiricalDispersion=GD3BJ opt freq scf(xqc,tight)
 integral(grid=ultrafine)
 ----------------------------------------------------------------------

 ----------------------------------
 opt-freq conformers_unique/conf_aj
 ----------------------------------
 Symbolic Z-matrix:
 Charge =  0 Multiplicity = 1

 SCF Done:  E(RB3LYP) =  -3157.29430199     A.U. after   14 cycles
 SCF Done:  E(RB3LYP) =  -3157.29660740     A.U. after   11 cycles
 SCF Done:  E(RB3LYP) =  -3157.29682280     A.U. after   10 cycles
 SCF Done:  E(RB3LYP) =  -3157.29712982     A.U. after   10 cycles
 SCF Done:  E(RB3LYP) =  -3157.28910549     A.U. after   12 cycles
 SCF Done:  E(RB3LYP) =  -3157.29653162     A.U. after   12 cycles
 SCF Done:  E(RB3LYP) =  -3157.29829647     A.U. after   10 cycles
 SCF Done:  E(RB3LYP) =  -3157.29842374     A.U. after   11 cycles
 SCF Done:  E(RB3LYP) =  -3157.29844932     A.U. after   11 cycles
 SCF Done:  E(RB3LYP) =  -3157.29869869     A.U. after   10 cycles
 SCF Done:  E(RB3LYP) =  -3157.30072821     A.U. after   10 cycles
 SCF Done:  E(RB3LYP) =  -3157.30073191     A.U. after    8 cycles
 SCF Done:  E(RB3LYP) =  -3157.30073199     A.U. after    6 cycles
 SCF Done:  E(RB3LYP) =  -3157.30073201     A.U. after    6 cycles
 SCF Done:  E(RB3LYP) =  -3157.30073202     A.U. after    6 cycles
 SCF Done:  E(RB3LYP) =  -3157.30073202     A.U. after    6 cycles
 SCF Done:  E(RB3LYP) =  -3157.30073202     A.U. after    6 cycles
 Optimization completed.
    -- Stationary point found.
 Normal termination of Gaussian 16 at Tue Sep 17 10:04:33 2024.

 ----------------------------------------------------------------------
 #P Geom=AllCheck Guess=TCheck SCRF=Check GenChk RB3LYP/6-31G(d,p) Freq
 ----------------------------------------------------------------------

 Structure from the checkpoint file:  "smiles_00105_conf_9.chk"
 ----------------------------------
 opt-freq conformers_unique/conf_aj
 ----------------------------------
 Charge =  0 Multiplicity = 1

 SCF Done:  E(RB3LYP) =  -3157.30073202     A.U. after    1 cycles

                      1                      2                      3
                      A                      A                      A
 Frequencies --     28.9481                42.2602                79.7801
 Red. masses --      2.8180                 3.7017                 2.9284
 Frc consts  --      0.0014                 0.0039                 0.0110
 IR Inten    --      0.0024                 0.0638                 0.4245

                      4                      5                      6
                      A                      A                      A
 Frequencies --     86.3603               100.5629               133.1528
 Red. masses --      2.6009                 3.4016                 2.9899
 Frc consts  --      0.0114                 0.0203                 0.0312
 IR Inten    --      0.0161                 0.0071                 0.0949

                      7                      8                      9
                      A                      A                      A
 Frequencies --    146.0351               162.0187               175.9090
 Red. masses --      3.2901                 3.1771                 5.8221
 Frc consts  --      0.0413                 0.0491                 0.1061
 IR Inten    --      0.0611                 0.3057                 0.2599

                     10                     11                     12
                      A                      A                      A
 Frequencies --    195.5934               229.8895               238.3636
 Red. masses --      3.2713                 3.7823                 1.0968
 Frc consts  --      0.0737                 0.1178                 0.0367
 IR Inten    --      0.0636                 0.7708                 0.0169

                     13                     14                     15
                      A                      A                      A
 Frequencies --    249.9059               253.3715               258.5034
 Red. masses --      1.1655                 1.1679                 1.0704
 Frc consts  --      0.0429                 0.0442                 0.0421
 IR Inten    --      0.1207                 0.0583                 0.0547

                     16                     17                     18
                      A                      A                      A
 Frequencies --    273.1657               284.7969               288.8160
 Red. masses --      1.8567                 1.0496                 1.1523
 Frc consts  --      0.0816                 0.0502                 0.0566
 IR Inten    --      0.0045                 0.1865                 0.0331

                     19                     20                     21
                      A                      A                      A
 Frequencies --    322.0351               338.7353               351.9470
 Red. masses --      3.0136                 2.7928                 3.2684
 Frc consts  --      0.1841                 0.1888                 0.2385
 IR Inten    --      0.6027                 0.3911                 1.6037

                     22                     23                     24
                      A                      A                      A
 Frequencies --    361.8731               386.0395               407.0063
 Red. masses --      2.8428                 3.5582                 3.2646
 Frc consts  --      0.2193                 0.3124                 0.3186
 IR Inten    --      1.2092                 0.0135                 1.1180

                     25                     26                     27
                      A                      A                      A
 Frequencies --    440.1163               479.7848               533.2434
 Red. masses --      2.4947                 2.8327                 4.3602
 Frc consts  --      0.2847                 0.3842                 0.7305
 IR Inten    --      0.0018                 0.0411                 2.8606

                     28                     29                     30
                      A                      A                      A
 Frequencies --    568.0590               603.3903               626.3953
 Red. masses --      2.9336                 3.7503                 3.1572
 Frc consts  --      0.5578                 0.8045                 0.7299
 IR Inten    --      0.1481                 5.6913                 4.7405

                     31                     32                     33
                      A                      A                      A
 Frequencies --    650.3391               663.5436               771.8590
 Red. masses --      3.3064                 3.8650                 3.4785
 Frc consts  --      0.8239                 1.0026                 1.2210
 IR Inten    --      0.5841                 2.1058                 2.3170

                     34                     35                     36
                      A                      A                      A
 Frequencies --    830.2653               851.1689               896.4125
 Red. masses --      3.6446                 3.1440                 2.4318
 Frc consts  --      1.4803                 1.3421                 1.1513
 IR Inten    --      0.5232                 0.6877                 0.0864

                     37                     38                     39
                      A                      A                      A
 Frequencies --    906.2538               913.2223               937.4130
 Red. masses --      1.5812                 1.3930                 1.1767
 Frc consts  --      0.7651                 0.6845                 0.6092
 IR Inten    --     10.1271                 1.0410                 0.6410

                     40                     41                     42
                      A                      A                      A
 Frequencies --    940.3701               942.9452               956.0591
 Red. masses --      1.2787                 1.1879                 2.1232
 Frc consts  --      0.6662                 0.6223                 1.1434
 IR Inten    --      2.9439                 0.2637                 4.9061

                     43                     44                     45
                      A                      A                      A
 Frequencies --    960.5890               969.8331               977.4722
 Red. masses --      2.1708                 1.4951                 1.4793
 Frc consts  --      1.1802                 0.8286                 0.8328
 IR Inten    --      7.5545                 0.1069                 0.0364

                     46                     47                     48
                      A                      A                      A
 Frequencies --    980.1384              1034.4274              1085.8213
 Red. masses --      1.5342                 7.5889                 1.5310
 Frc consts  --      0.8684                 4.7844                 1.0635
 IR Inten    --      4.5695                47.6662                12.1249

                     49                     50                     51
                      A                      A                      A
 Frequencies --   1103.1540              1129.9179              1130.9260
 Red. masses --      1.6173                 2.3071                 1.6907
 Frc consts  --      1.1596                 1.7354                 1.2740
 IR Inten    --      2.9835                 0.9182                 9.3422

                     52                     53                     54
                      A                      A                      A
 Frequencies --   1133.8314              1140.8907              1174.0790
 Red. masses --      2.2339                 2.1901                 1.7790
 Frc consts  --      1.6920                 1.6796                 1.4449
 IR Inten    --      0.8590                 8.3551                 1.4690

                     55                     56                     57
                      A                      A                      A
 Frequencies --   1189.4313              1208.1529              1225.8016
 Red. masses --      1.9127                 1.9244                 1.6042
 Frc consts  --      1.5943                 1.6549                 1.4202
 IR Inten    --      2.4945                10.8450                 1.1009

                     58                     59                     60
                      A                      A                      A
 Frequencies --   1283.7697              1303.0621              1316.3991
 Red. masses --      1.5219                 2.4018                 4.0780
 Frc consts  --      1.4778                 2.4028                 4.1636
 IR Inten    --      9.4125                 0.8620                 1.6748

                     61                     62                     63
                      A                      A                      A
 Frequencies --   1343.1814              1344.7782              1352.6701
 Red. masses --      1.3980                 1.3985                 1.3266
 Frc consts  --      1.4860                 1.4901                 1.4302
 IR Inten    --      5.4508                 1.9930                 2.4899

                     64                     65                     66
                      A                      A                      A
 Frequencies --   1360.7898              1380.5313              1394.6763
 Red. masses --      1.5884                 1.8972                 1.5661
 Frc consts  --      1.7330                 2.1304                 1.7948
 IR Inten    --     13.7429                 4.3932                 5.7920

                     67                     68                     69
                      A                      A                      A
 Frequencies --   1410.3688              1410.4831              1412.5854
 Red. masses --      1.2441                 1.2519                 1.2339
 Frc consts  --      1.4580                 1.4675                 1.4507
 IR Inten    --      2.6567                 6.1080                 3.8319

                     70                     71                     72
                      A                      A                      A
 Frequencies --   1431.1712              1432.1596              1433.4024
 Red. masses --      1.2439                 1.2376                 1.2334
 Frc consts  --      1.5011                 1.4956                 1.4931
 IR Inten    --      0.9996                 5.8424                 0.6756

                     73                     74                     75
                      A                      A                      A
 Frequencies --   1472.3405              1474.8436              1501.2925
 Red. masses --      2.5079                 2.4962                 1.0439
 Frc consts  --      3.2032                 3.1990                 1.3862
 IR Inten    --     19.8885                21.3744                 0.0956

                     76                     77                     78
                      A                      A                      A
 Frequencies --   1503.0016              1503.6418              1505.2541
 Red. masses --      1.0438                 1.0447                 1.0478
 Frc consts  --      1.3892                 1.3917                 1.3987
 IR Inten    --      4.1026                 0.1840                 1.6857

                     79                     80                     81
                      A                      A                      A
 Frequencies --   1507.1020              1508.7663              1517.0017
 Red. masses --      1.0609                 1.0943                 1.0487
 Frc consts  --      1.4198                 1.4677                 1.4219
 IR Inten    --      4.4007                 0.5478                 7.3923

                     82                     83                     84
                      A                      A                      A
 Frequencies --   1522.5111              1523.0162              1524.0193
 Red. masses --      1.0469                 1.0507                 1.0718
 Frc consts  --      1.4298                 1.4360                 1.4667
 IR Inten    --      9.1235                 5.3609                 5.2826

                     85                     86                     87
                      A                      A                      A
 Frequencies --   1527.8833              1528.5975              1629.0149
 Red. masses --      1.0573                 1.0622                 7.4854
 Frc consts  --      1.4542                 1.4624                11.7035
 IR Inten    --      3.4896                 3.0380                 7.9812

                     88                     89                     90
                      A                      A                      A
 Frequencies --   1647.0049              3034.0047              3040.0970
 Red. masses --      5.1617                 1.0843                 1.0347
 Frc consts  --      8.2496                 5.8810                 5.6344
 IR Inten    --      4.0153                15.2753                21.5196

                     91                     92                     93
                      A                      A                      A
 Frequencies --   3041.2995              3041.4048              3044.0608
 Red. masses --      1.0356                 1.0356                 1.0355
 Frc consts  --      5.6436                 5.6439                 5.6536
 IR Inten    --     27.2175                23.6698                27.9361

                     94                     95                     96
                      A                      A                      A
 Frequencies --   3044.8988              3045.2360              3059.5935
 Red. masses --      1.0381                 1.0379                 1.0814
 Frc consts  --      5.6705                 5.6711                 5.9643
 IR Inten    --     53.5201                 5.9137                 9.3904

                     97                     98                     99
                      A                      A                      A
 Frequencies --   3060.6000              3108.7661              3108.8243
 Red. masses --      1.0815                 1.1026                 1.1024
 Frc consts  --      5.9690                 6.2781                 6.2774
 IR Inten    --      2.2981                 0.2355                 2.4214

                    100                    101                    102
                      A                      A                      A
 Frequencies --   3109.0482              3114.8730              3115.6771
 Red. masses --      1.1024                 1.1017                 1.1013
 Frc consts  --      6.2786                 6.2981                 6.2991
 IR Inten    --      1.3961               108.1776                44.2113

                    103                    104                    105
                      A                      A                      A
 Frequencies --   3115.9779              3121.1292              3122.6416
 Red. masses --      1.1012                 1.1029                 1.1031
 Frc consts  --      6.2996                 6.3300                 6.3375
 IR Inten    --     53.0893                19.0096                60.8669

                    106                    107                    108
                      A                      A                      A
 Frequencies --   3122.6960              3122.8607              3136.7661
 Red. masses --      1.1031                 1.1026                 1.1011
 Frc consts  --      6.3377                 6.3352                 6.3833
 IR Inten    --     16.8394                17.2897                28.2078

                    109                    110                    111
                      A                      A                      A
 Frequencies --   3137.0849              3198.7962              3207.0753
 Red. masses --      1.1011                 1.0888                 1.0882
 Frc consts  --      6.3843                 6.5638                 6.5945
 IR Inten    --      8.4215                10.1293                 9.6408

 - Thermochemistry -
 -------------------
 Temperature   298.150 Kelvin.  Pressure   1.00000 Atm.
 Atom     1 has atomic number  6 and mass  12.00000

 Molecular mass:   282.09831 amu.
 Principal axes and moments of inertia in atomic units:
                           1         2         3
     Eigenvalues --  3856.242875631.462038515.42032
           X            0.99816   0.06069   0.00036
           Y           -0.06069   0.99816  -0.00173
           Z           -0.00046   0.00171   1.00000
 This molecule is an asymmetric top.
 Rotational symmetry number  1.
 Warning -- assumption of classical behavior for rotation
           may cause significant error
 Rotational temperatures (Kelvin)      0.02246     0.01538     0.01017
 Rotational constants (GHZ):           0.46801     0.32047     0.21194
 Zero-point vibrational energy     906823.8 (Joules/Mol)
                                  216.73610 (Kcal/Mol)
 Warning -- explicit consideration of  29 degrees of freedom as
           vibrations may cause significant error
 Vibrational temperatures:     41.65    60.80   114.79   124.25   144.69
          (Kelvin)            191.58   210.11   233.11   253.09   281.42
                              330.76   342.95   359.56   364.55   371.93
                              393.02   409.76   415.54   463.34   487.36
                              506.37   520.65   555.42   585.59   633.23
                              690.30   767.22   817.31   868.14   901.24
                              935.69   954.69  1110.53  1194.57  1224.64
                             1289.74  1303.90  1313.92  1348.73  1352.98
                             1356.69  1375.56  1382.07  1395.37  1406.36
                             1410.20  1488.31  1562.25  1587.19  1625.70
                             1627.15  1631.33  1641.49  1689.24  1711.33
                             1738.26  1763.66  1847.06  1874.82  1894.00
                             1932.54  1934.84  1946.19  1957.87  1986.28
                             2006.63  2029.21  2029.37  2032.40  2059.14
                             2060.56  2062.35  2118.37  2121.97  2160.03
                             2162.48  2163.41  2165.72  2168.38  2170.78
                             2182.63  2190.55  2191.28  2192.72  2198.28
                             2199.31  2343.79  2369.67  4365.26  4374.02
                             4375.75  4375.90  4379.72  4380.93  4381.42
                             4402.07  4403.52  4472.82  4472.90  4473.23
                             4481.61  4482.76  4483.20  4490.61  4492.78
                             4492.86  4493.10  4513.11  4513.57  4602.35
                             4614.27

 Zero-point correction=                           0.345391 (Hartree/Particle)
 Thermal correction to Energy=                    0.363848
 Thermal correction to Enthalpy=                  0.364793
 Thermal correction to Gibbs Free Energy=         0.298998
 Sum of electronic and zero-point Energies=          -3156.955341
 Sum of electronic and thermal Energies=             -3156.936884
 Sum of electronic and thermal Enthalpies=           -3156.935939
 Sum of electronic and thermal Free Energies=        -3157.001734

                     E (Thermal)             CV                S
                      KCal/Mol        Cal/Mol-Kelvin    Cal/Mol-Kelvin
 Total                  228.318             69.651            138.477
 Electronic               0.000              0.000              0.000
 Translational            0.889              2.981             42.809
 Rotational               0.889              2.981             33.580
 Vibrational            226.541             63.690             62.087
 Vibration     1          0.593              1.984              5.900
 Vibration     2          0.595              1.980              5.150
 Vibration     3          0.600              1.963              3.896
 Vibration     4          0.601              1.959              3.741
 Vibration     5          0.604              1.949              3.443
 Vibration     6          0.613              1.920              2.900
 Vibration     7          0.617              1.907              2.723
 Vibration     8          0.622              1.889              2.526
 Vibration     9          0.628              1.872              2.371
 Vibration    10          0.636              1.846              2.174
 Vibration    11          0.652              1.795              1.880
 Vibration    12          0.656              1.782              1.815
 Vibration    13          0.663              1.763              1.731
 Vibration    14          0.665              1.757              1.707
 Vibration    15          0.667              1.748              1.672
 Vibration    16          0.676              1.723              1.576
 Vibration    17          0.683              1.702              1.505
 Vibration    18          0.685              1.695              1.481
 Vibration    19          0.707              1.631              1.300
 Vibration    20          0.719              1.598              1.218
 Vibration    21          0.728              1.571              1.157
 Vibration    22          0.736              1.551              1.114
 Vibration    23          0.755              1.500              1.015
 Vibration    24          0.772              1.455              0.937
 Vibration    25          0.800              1.383              0.826
 Vibration    26          0.836              1.295              0.711
 Vibration    27          0.888              1.176              0.580
 Vibration    28          0.924              1.100              0.508
 Vibration    29          0.962              1.025              0.444

 Optimization completed.
    -- Stationary point found.
 Normal termination of Gaussian 16 at Tue Sep 17 10:10:28 2024.

 ----------------------------------------------------------------------
 #p M062X/def2tzvp geom=check guess=read scf(xqc,tight) integral(grid=u
 ltrafine) scrf(SMD, solvent=1,4-Dioxane) polar prop=efg volume
 ----------------------------------------------------------------------

 ---
 spe
 ---
 Structure from the checkpoint file:  "smiles_00105_conf_9.chk"
 Charge =  0 Multiplicity = 1

 SCF Done:  E(RM062X) =  -3159.60450905     A.U. after   12 cycles

  Exact polarizability:     269.058       0.054     250.767       0.058       1.408     169.651
 Approx polarizability:     277.779      -4.206     257.323       0.230       2.918     196.176

 Normal termination of Gaussian 16 at Tue Sep 17 12:23:53 2024.
 Gaussian 16:  ES64L-G16RevC.02  7-Dec-2021

 ----------------------------------------------------------------------
 #p M062X/def2tzvp geom=check guess=read scf(xqc,tight) integral(grid=u
 ltrafine) scrf(SMD, solvent=1,4-Dioxane) nmr=giao
 ----------------------------------------------------------------------

 ---
 spe
 ---
 Structure from the checkpoint file:  "smiles_00105_conf_9.chk"
 Charge =  0 Multiplicity = 1

                         Standard orientation:
 ---------------------------------------------------------------------
 Center     Atomic      Atomic             Coordinates (Angstroms)
 Number     Number       Type             X           Y           Z
 ---------------------------------------------------------------------
      1          6           0        4.184917   -0.296555   -1.237757
      2          6           0        3.461820   -0.914886   -0.029985
      3          6           0        4.146092   -0.516441    1.287958
      4          6           0        1.985606   -0.557503   -0.021016
      5          6           0        1.012187   -1.550258   -0.119746
      6          6           0       -0.357565   -1.260493   -0.115616
      7          6           0       -1.396079   -2.370327   -0.181970
      8          6           0       -1.921157   -2.684034    1.231912
      9          6           0       -0.900243   -3.645400   -0.873036
     10          6           0       -0.717466    0.089462   -0.003268
     11         35           0       -2.595610    0.540340    0.010801
     12          6           0        0.218388    1.131039    0.100701
     13          6           0       -0.204962    2.590385    0.178018
     14          6           0        0.824692    3.500551    0.856790
     15          6           0       -0.551855    3.112640   -1.229148
     16          6           0        1.568571    0.771259    0.086887
     17          1           0        3.712865   -0.599469   -2.176930
     18          1           0        5.234242   -0.608548   -1.262923
     19          1           0        4.163548    0.797397   -1.191101
     20          1           0        3.529724   -2.006204   -0.124125
     21          1           0        4.121295    0.568993    1.431321
     22          1           0        5.195489   -0.829221    1.290182
     23          1           0        3.647475   -0.977306    2.145648
     24          1           0        1.330000   -2.583936   -0.203975
     25          1           0       -2.236441   -1.983038   -0.768106
     26          1           0       -2.329293   -1.787177    1.703505
     27          1           0       -2.711504   -3.440836    1.190794
     28          1           0       -1.112079   -3.067503    1.862756
     29          1           0       -0.141911   -4.165376   -0.278186
     30          1           0       -0.473239   -3.431632   -1.857448
     31          1           0       -1.735342   -4.339451   -1.007267
     32          1           0       -1.120744    2.623517    0.778014
     33          1           0        0.396247    4.496769    1.001841
     34          1           0        1.726772    3.623830    0.248101
     35          1           0        1.124356    3.112542    1.834939
     36          1           0       -1.328929    2.499746   -1.691558
     37          1           0        0.333835    3.089808   -1.873100
     38          1           0       -0.912781    4.145269   -1.179350
     39          1           0        2.315097    1.553317    0.164582
 ---------------------------------------------------------------------

 SCF Done:  E(RM062X) =  -3159.60450905     A.U. after    1 cycles

      1  C    Isotropic =   159.7696   Anisotropy =    36.8316

      2  C    Isotropic =   145.6546   Anisotropy =    26.7552

      3  C    Isotropic =   159.7665   Anisotropy =    36.7340

      4  C    Isotropic =    10.8012   Anisotropy =   239.8962

      5  C    Isotropic =    40.7183   Anisotropy =   171.5068

      6  C    Isotropic =    11.6431   Anisotropy =   218.8151

      7  C    Isotropic =   148.5236   Anisotropy =    18.6638

      8  C    Isotropic =   160.8267   Anisotropy =    35.6295

      9  C    Isotropic =   164.5767   Anisotropy =    31.2097

     10  C    Isotropic =    27.0165   Anisotropy =    90.1988

     11  Br   Isotropic =  2272.0893   Anisotropy =   744.8207

     12  C    Isotropic =    11.6457   Anisotropy =   220.8786

     13  C    Isotropic =   148.4106   Anisotropy =    18.2871

     14  C    Isotropic =   164.6034   Anisotropy =    31.1689

     15  C    Isotropic =   160.8199   Anisotropy =    35.5296

     16  C    Isotropic =    42.7590   Anisotropy =   201.7492

     17  H    Isotropic =    30.7185   Anisotropy =     8.2467

     18  H    Isotropic =    30.6285   Anisotropy =    10.7695

     19  H    Isotropic =    30.6512   Anisotropy =     6.3820

     20  H    Isotropic =    29.0129   Anisotropy =     7.4692

     21  H    Isotropic =    30.6181   Anisotropy =     6.3469

     22  H    Isotropic =    30.6240   Anisotropy =    10.7718

     23  H    Isotropic =    30.7207   Anisotropy =     8.2854

     24  H    Isotropic =    24.0601   Anisotropy =    13.4460

     25  H    Isotropic =    28.4144   Anisotropy =     9.9559

     26  H    Isotropic =    30.1272   Anisotropy =     6.0453

     27  H    Isotropic =    30.6552   Anisotropy =    10.9304

     28  H    Isotropic =    31.3210   Anisotropy =     7.7208

     29  H    Isotropic =    30.3682   Anisotropy =     7.7780

     30  H    Isotropic =    30.6503   Anisotropy =     9.4059

     31  H    Isotropic =    30.5688   Anisotropy =    10.4130

     32  H    Isotropic =    28.4070   Anisotropy =    10.0336

     33  H    Isotropic =    30.5494   Anisotropy =    10.4117

     34  H    Isotropic =    30.3521   Anisotropy =     7.6876

     35  H    Isotropic =    30.6534   Anisotropy =     9.2274

     36  H    Isotropic =    30.1278   Anisotropy =     6.1310

     37  H    Isotropic =    31.3467   Anisotropy =     7.6050

     38  H    Isotropic =    30.6519   Anisotropy =    10.9373

     39  H    Isotropic =    23.9057   Anisotropy =    15.7567

 The electronic state is 1-A.
 Alpha  occ. eigenvalues -- -485.36794 -63.35253 -57.17195 -57.16973 -57.16957
 Alpha  occ. eigenvalues --  -10.59200 -10.55611 -10.55576 -10.54614 -10.54303
 Alpha  occ. eigenvalues --  -10.54299 -10.54299 -10.53669 -10.53658 -10.52170
 Alpha  occ. eigenvalues --  -10.52164 -10.52139 -10.52126 -10.51931 -10.51928
 Alpha  occ. eigenvalues --   -9.01870  -6.84250  -6.83433  -6.83383  -2.87628
 Alpha  occ. eigenvalues --   -2.87341  -2.87288  -2.86526  -2.86524  -0.98171
 Alpha  occ. eigenvalues --   -0.91952  -0.91499  -0.87614  -0.86836  -0.81911
 Alpha  occ. eigenvalues --   -0.79750  -0.77264  -0.77188  -0.77077  -0.71735
 Alpha  occ. eigenvalues --   -0.68967  -0.67994  -0.62875  -0.61690  -0.56670
 Alpha  occ. eigenvalues --   -0.55655  -0.52406  -0.51977  -0.50579  -0.50332
 Alpha  occ. eigenvalues --   -0.49933  -0.49649  -0.48040  -0.46855  -0.46760
 Alpha  occ. eigenvalues --   -0.45498  -0.44685  -0.44327  -0.43129  -0.42886
 Alpha  occ. eigenvalues --   -0.42657  -0.42074  -0.40254  -0.40179  -0.39932
 Alpha  occ. eigenvalues --   -0.39704  -0.39391  -0.38514  -0.37424  -0.36527
 Alpha  occ. eigenvalues --   -0.35890  -0.33652  -0.29610  -0.28180
 Alpha virt. eigenvalues --    0.01778   0.02125   0.04470   0.06129   0.07691
 Alpha virt. eigenvalues --    0.08273   0.10270   0.10393   0.10845   0.11704
 Alpha virt. eigenvalues --    0.12362   0.12636   0.13310   0.13624   0.13863

 Mulliken charges:
               1
     1  C   -0.438298
     2  C   -0.221963
     3  C   -0.437433
     4  C    0.085641
     5  C   -0.192258
     6  C    0.164618
     7  C   -0.180527
     8  C   -0.431685
     9  C   -0.483654
    10  C   -0.131150
    11  Br  -0.138636
    12  C    0.152677
    13  C   -0.178733
    14  C   -0.485777
    15  C   -0.431575
    16  C   -0.273643
    17  H    0.157850
    18  H    0.151930
    19  H    0.145958
    20  H    0.132308
    21  H    0.146791
    22  H    0.151851
    23  H    0.157271
    24  H    0.182907
    25  H    0.150997
    26  H    0.157970
    27  H    0.151120
    28  H    0.149199
    29  H    0.148321
    30  H    0.172159
    31  H    0.162579
    32  H    0.150367
    33  H    0.163401
    34  H    0.147607
    35  H    0.172905
    36  H    0.158134
    37  H    0.149294
    38  H    0.151231
    39  H    0.210245
 Sum of Mulliken charges =  -0.00000

 Dipole moment (field-independent basis, Debye):
    X=              1.8970    Y=             -0.4855    Z=             -0.0138  Tot=              1.9581
 Quadrupole moment (field-independent basis, Debye-Ang):
   XX=           -110.9607   YY=           -106.2790   ZZ=           -116.9547
   XY=              0.6587   XZ=              0.1741   YZ=              1.0704

 Normal termination of Gaussian 16 at Tue Sep 17 13:14:13 2024.
