 Gaussian 16, Revision C.02,

 ----------------------------------------------------------------------
 #p B3LYP/6-31G(d,p) EmpiricalDispersion=GD3BJ opt freq scf(xqc,tight)
 integral(grid=ultrafine)
 ----------------------------------------------------------------------

 ----------------------------------
 opt-freq conformers_unique/conf_ad
 ----------------------------------
 Symbolic Z-matrix:
 Charge =  0 Multiplicity = 1

 SCF Done:  E(RB3LYP) =  -3157.29572521     A.U. after   14 cycles
 SCF Done:  E(RB3LYP) =  -3157.29829747     A.U. after   12 cycles
 SCF Done:  E(RB3LYP) =  -3157.29807229     A.U. after   11 cycles
 SCF Done:  E(RB3LYP) =  -3157.29860364     A.U. after   11 cycles
 SCF Done:  E(RB3LYP) =  -3157.29877433     A.U. after   10 cycles
 SCF Done:  E(RB3LYP) =  -3157.29880841     A.U. after    9 cycles
 SCF Done:  E(RB3LYP) =  -3157.29882059     A.U. after    8 cycles
 SCF Done:  E(RB3LYP) =  -3157.29882125     A.U. after    7 cycles
 SCF Done:  E(RB3LYP) =  -3157.29882137     A.U. after    6 cycles
 Optimization completed.
    -- Stationary point found.
 Normal termination of Gaussian 16 at Tue Sep 17 09:52:31 2024.

 ----------------------------------------------------------------------
 #P Geom=AllCheck Guess=TCheck SCRF=Check GenChk RB3LYP/6-31G(d,p) Freq
 ----------------------------------------------------------------------

 Structure from the checkpoint file:  "smiles_00105_conf_3.chk"
 ----------------------------------
 opt-freq conformers_unique/conf_ad
 ----------------------------------
 Charge =  0 Multiplicity = 1

 SCF Done:  E(RB3LYP) =  -3157.29882137     A.U. after    1 cycles

                      1                      2                      3
                      A                      A                      A
 Frequencies --     28.9012                43.1145                69.8739
 Red. masses --      2.7922                 3.9806                 2.9733
 Frc consts  --      0.0014                 0.0044                 0.0086
 IR Inten    --      0.0010                 0.0754                 0.2194

                      4                      5                      6
                      A                      A                      A
 Frequencies --     93.8193               116.8528               137.3225
 Red. masses --      2.6630                 2.8939                 3.0695
 Frc consts  --      0.0138                 0.0233                 0.0341
 IR Inten    --      0.0996                 0.0381                 0.0548

                      7                      8                      9
                      A                      A                      A
 Frequencies --    154.9853               168.3173               189.5951
 Red. masses --      2.7382                 2.9505                 5.7212
 Frc consts  --      0.0388                 0.0492                 0.1212
 IR Inten    --      0.0346                 0.2982                 0.2141

                     10                     11                     12
                      A                      A                      A
 Frequencies --    192.7511               216.8247               230.0382
 Red. masses --      2.1438                 1.4190                 2.9365
 Frc consts  --      0.0469                 0.0393                 0.0916
 IR Inten    --      0.0772                 0.4865                 0.7623

                     13                     14                     15
                      A                      A                      A
 Frequencies --    232.7516               239.9427               250.6767
 Red. masses --      1.2222                 1.3033                 1.3272
 Frc consts  --      0.0390                 0.0442                 0.0491
 IR Inten    --      0.0081                 0.0063                 0.1292

                     16                     17                     18
                      A                      A                      A
 Frequencies --    258.5414               265.4393               288.6403
 Red. masses --      1.0635                 1.5965                 1.0725
 Frc consts  --      0.0419                 0.0663                 0.0526
 IR Inten    --      0.0486                 0.0067                 0.0873

                     19                     20                     21
                      A                      A                      A
 Frequencies --    310.9676               334.6419               354.0024
 Red. masses --      2.9780                 2.5835                 3.1080
 Frc consts  --      0.1697                 0.1705                 0.2295
 IR Inten    --      0.0999                 0.0945                 1.6870

                     22                     23                     24
                      A                      A                      A
 Frequencies --    365.8922               382.8507               405.1784
 Red. masses --      3.0183                 3.0631                 4.1379
 Frc consts  --      0.2381                 0.2645                 0.4002
 IR Inten    --      1.2887                 0.1867                 1.4946

                     25                     26                     27
                      A                      A                      A
 Frequencies --    458.4450               477.6865               513.2532
 Red. masses --      2.7326                 2.9374                 3.2141
 Frc consts  --      0.3384                 0.3949                 0.4988
 IR Inten    --      0.4183                 2.6363                 0.3423

                     28                     29                     30
                      A                      A                      A
 Frequencies --    567.0385               599.3273               645.5705
 Red. masses --      3.2793                 3.8711                 3.9874
 Frc consts  --      0.6212                 0.8192                 0.9791
 IR Inten    --      0.6423                 6.4597                 0.6047

                     31                     32                     33
                      A                      A                      A
 Frequencies --    656.9043               665.0914               773.1711
 Red. masses --      2.8035                 3.6433                 3.4742
 Frc consts  --      0.7128                 0.9495                 1.2237
 IR Inten    --      0.4502                 1.6670                 2.6409

                     34                     35                     36
                      A                      A                      A
 Frequencies --    829.9882               841.6774               896.0599
 Red. masses --      3.5284                 3.4302                 2.4507
 Frc consts  --      1.4321                 1.4317                 1.1593
 IR Inten    --      2.0197                 1.3321                 0.0866

                     37                     38                     39
                      A                      A                      A
 Frequencies --    907.5791               912.2743               937.6362
 Red. masses --      1.6013                 1.3815                 1.1787
 Frc consts  --      0.7771                 0.6774                 0.6106
 IR Inten    --     10.2439                 0.4460                 0.6668

                     40                     41                     42
                      A                      A                      A
 Frequencies --    941.7800               946.7410               953.6271
 Red. masses --      1.2912                 1.1927                 1.9877
 Frc consts  --      0.6748                 0.6299                 1.0650
 IR Inten    --      1.4783                 2.1998                12.0936

                     43                     44                     45
                      A                      A                      A
 Frequencies --    964.8679               969.9975               975.2279
 Red. masses --      2.3944                 1.4962                 1.4501
 Frc consts  --      1.3134                 0.8294                 0.8126
 IR Inten    --      2.3934                 0.0995                 0.0508

                     46                     47                     48
                      A                      A                      A
 Frequencies --    979.2856              1033.2741              1097.2647
 Red. masses --      1.5029                 7.7122                 1.5600
 Frc consts  --      0.8492                 4.8513                 1.1066
 IR Inten    --      2.2938                45.8075                10.4928

                     49                     50                     51
                      A                      A                      A
 Frequencies --   1111.2811              1114.9947              1130.1735
 Red. masses --      1.5845                 1.7466                 2.3180
 Frc consts  --      1.1529                 1.2794                 1.7444
 IR Inten    --     10.8870                 9.2157                 0.7997

                     52                     53                     54
                      A                      A                      A
 Frequencies --   1139.8727              1142.3715              1188.0156
 Red. masses --      2.4359                 2.1521                 1.8164
 Frc consts  --      1.8647                 1.6547                 1.5104
 IR Inten    --      1.6023                 9.2591                 2.0557

                     55                     56                     57
                      A                      A                      A
 Frequencies --   1190.9446              1208.4137              1225.6108
 Red. masses --      1.8225                 1.9687                 1.5663
 Frc consts  --      1.5230                 1.6938                 1.3862
 IR Inten    --      4.1891                10.3288                 3.2640

                     58                     59                     60
                      A                      A                      A
 Frequencies --   1267.2270              1297.0954              1336.0113
 Red. masses --      1.6646                 2.5101                 6.0139
 Frc consts  --      1.5749                 2.4882                 6.3245
 IR Inten    --      0.5287                 1.5984                 1.9590

                     61                     62                     63
                      A                      A                      A
 Frequencies --   1341.9812              1352.9394              1357.3016
 Red. masses --      1.4178                 1.3268                 1.7238
 Frc consts  --      1.5044                 1.4309                 1.8711
 IR Inten    --      6.2512                 2.6009                 8.0014

                     64                     65                     66
                      A                      A                      A
 Frequencies --   1361.7824              1365.7906              1404.0998
 Red. masses --      1.2877                 1.5071                 1.4431
 Frc consts  --      1.4069                 1.6563                 1.6762
 IR Inten    --      1.5142                13.0562                 0.8487

                     67                     68                     69
                      A                      A                      A
 Frequencies --   1412.1696              1412.7524              1413.5516
 Red. masses --      1.3290                 1.2353                 1.2218
 Frc consts  --      1.5616                 1.4526                 1.4384
 IR Inten    --      3.2994                 2.8486                 7.7158

                     70                     71                     72
                      A                      A                      A
 Frequencies --   1431.4934              1433.3240              1434.4254
 Red. masses --      1.2360                 1.2265                 1.2262
 Frc consts  --      1.4923                 1.4846                 1.4865
 IR Inten    --      4.7529                 0.7400                 3.0526

                     73                     74                     75
                      A                      A                      A
 Frequencies --   1469.2162              1480.5017              1501.3590
 Red. masses --      2.5385                 2.2501                 1.0437
 Frc consts  --      3.2285                 2.9058                 1.3860
 IR Inten    --     10.6896                28.9860                 0.0423

                     76                     77                     78
                      A                      A                      A
 Frequencies --   1503.6115              1503.8877              1505.1160
 Red. masses --      1.0415                 1.0468                 1.0477
 Frc consts  --      1.3874                 1.3949                 1.3983
 IR Inten    --      0.0783                 2.2722                 2.0386

                     79                     80                     81
                      A                      A                      A
 Frequencies --   1508.0829              1516.9236              1517.2255
 Red. masses --      1.0778                 1.0477                 1.0488
 Frc consts  --      1.4442                 1.4204                 1.4225
 IR Inten    --      1.8366                 7.2861                 6.2980

                     82                     83                     84
                      A                      A                      A
 Frequencies --   1518.2234              1523.1355              1524.1438
 Red. masses --      1.0501                 1.0510                 1.0726
 Frc consts  --      1.4262                 1.4366                 1.4680
 IR Inten    --      0.4027                 8.6353                 4.2808

                     85                     86                     87
                      A                      A                      A
 Frequencies --   1528.8320              1536.4789              1626.9928
 Red. masses --      1.0592                 1.0668                 7.3873
 Frc consts  --      1.4587                 1.4838                11.5214
 IR Inten    --      3.4540                 1.5085                 6.2355

                     88                     89                     90
                      A                      A                      A
 Frequencies --   1645.8595              3034.0317              3035.0429
 Red. masses --      5.2068                 1.0843                 1.0827
 Frc consts  --      8.3101                 5.8810                 5.8762
 IR Inten    --      5.0130                15.0497                18.0806

                     91                     92                     93
                      A                      A                      A
 Frequencies --   3040.3492              3041.5279              3044.2481
 Red. masses --      1.0347                 1.0356                 1.0355
 Frc consts  --      5.6353                 5.6443                 5.6543
 IR Inten    --     22.9348                24.6576                32.0445

                     94                     95                     96
                      A                      A                      A
 Frequencies --   3045.2862              3048.9926              3053.3919
 Red. masses --      1.0375                 1.0384                 1.0403
 Frc consts  --      5.6688                 5.6875                 5.7146
 IR Inten    --     30.1766                34.6831                44.7865

                     97                     98                     99
                      A                      A                      A
 Frequencies --   3063.1643              3109.0629              3109.1670
 Red. masses --      1.0821                 1.1024                 1.1026
 Frc consts  --      5.9819                 6.2786                 6.2802
 IR Inten    --      4.5526                 1.7578                 0.2039

                    100                    101                    102
                      A                      A                      A
 Frequencies --   3113.6346              3115.1470              3116.0265
 Red. masses --      1.1026                 1.1018                 1.1018
 Frc consts  --      6.2978                 6.2994                 6.3029
 IR Inten    --     15.4986                97.2054                47.2912

                    103                    104                    105
                      A                      A                      A
 Frequencies --   3116.2531              3121.3482              3122.6879
 Red. masses --      1.1017                 1.1029                 1.1031
 Frc consts  --      6.3034                 6.3310                 6.3377
 IR Inten    --     47.1362                19.8267                39.8312

                    106                    107                    108
                      A                      A                      A
 Frequencies --   3123.0272              3137.8589              3157.1636
 Red. masses --      1.1025                 1.1010                 1.0983
 Frc consts  --      6.3356                 6.3870                 6.4501
 IR Inten    --     22.8784                18.1548                 2.2629

                    109                    110                    111
                      A                      A                      A
 Frequencies --   3160.3109              3176.4799              3200.9290
 Red. masses --      1.0976                 1.0890                 1.0887
 Frc consts  --      6.4591                 6.4739                 6.5722
 IR Inten    --     18.5088                16.5356                 9.6664

 - Thermochemistry -
 -------------------
 Temperature   298.150 Kelvin.  Pressure   1.00000 Atm.
 Atom     1 has atomic number  6 and mass  12.00000

 Molecular mass:   282.09831 amu.
 Principal axes and moments of inertia in atomic units:
                           1         2         3
     Eigenvalues --  3679.966665766.560878363.85862
           X            0.99998   0.00240   0.00493
           Y           -0.00241   1.00000   0.00099
           Z           -0.00493  -0.00100   0.99999
 This molecule is an asymmetric top.
 Rotational symmetry number  1.
 Warning -- assumption of classical behavior for rotation
           may cause significant error
 Rotational temperatures (Kelvin)      0.02354     0.01502     0.01036
 Rotational constants (GHZ):           0.49042     0.31297     0.21578
 Zero-point vibrational energy     907032.8 (Joules/Mol)
                                  216.78603 (Kcal/Mol)
 Warning -- explicit consideration of  29 degrees of freedom as
           vibrations may cause significant error
 Vibrational temperatures:     41.58    62.03   100.53   134.99   168.13
          (Kelvin)            197.58   222.99   242.17   272.79   277.33
                              311.96   330.97   334.88   345.22   360.67
                              371.98   381.91   415.29   447.41   481.48
                              509.33   526.44   550.84   582.96   659.60
                              687.28   738.46   815.84   862.30   928.83
                              945.14   956.92  1112.42  1194.17  1210.99
                             1289.23  1305.80  1312.56  1349.05  1355.01
                             1362.15  1372.06  1388.23  1395.61  1403.14
                             1408.97  1486.65  1578.72  1598.89  1604.23
                             1626.07  1640.02  1643.62  1709.29  1713.50
                             1738.64  1763.38  1823.26  1866.23  1922.22
                             1930.81  1946.58  1952.85  1959.30  1965.07
                             2020.19  2031.80  2032.64  2033.79  2059.60
                             2062.23  2063.82  2113.87  2130.11  2160.12
                             2163.36  2163.76  2165.53  2169.79  2182.51
                             2182.95  2184.38  2191.45  2192.90  2199.65
                             2210.65  2340.88  2368.02  4365.29  4366.75
                             4374.38  4376.08  4379.99  4381.49  4386.82
                             4393.15  4407.21  4473.25  4473.40  4479.83
                             4482.00  4483.27  4483.59  4490.92  4492.85
                             4493.34  4514.68  4542.45  4546.98  4570.25
                             4605.42

 Zero-point correction=                           0.345471 (Hartree/Particle)
 Thermal correction to Energy=                    0.363986
 Thermal correction to Enthalpy=                  0.364930
 Thermal correction to Gibbs Free Energy=         0.299103
 Sum of electronic and zero-point Energies=          -3156.953351
 Sum of electronic and thermal Energies=             -3156.934836
 Sum of electronic and thermal Enthalpies=           -3156.933891
 Sum of electronic and thermal Free Energies=        -3156.999718

                     E (Thermal)             CV                S
                      KCal/Mol        Cal/Mol-Kelvin    Cal/Mol-Kelvin
 Total                  228.405             69.732            138.544
 Electronic               0.000              0.000              0.000
 Translational            0.889              2.981             42.809
 Rotational               0.889              2.981             33.539
 Vibrational            226.627             63.770             62.195
 Vibration     1          0.593              1.984              5.903
 Vibration     2          0.595              1.980              5.111
 Vibration     3          0.598              1.968              4.157
 Vibration     4          0.603              1.954              3.579
 Vibration     5          0.608              1.935              3.152
 Vibration     6          0.614              1.916              2.841
 Vibration     7          0.620              1.897              2.610
 Vibration     8          0.625              1.881              2.454
 Vibration     9          0.633              1.854              2.232
 Vibration    10          0.635              1.850              2.201
 Vibration    11          0.646              1.815              1.985
 Vibration    12          0.652              1.795              1.879
 Vibration    13          0.654              1.791              1.858
 Vibration    14          0.657              1.779              1.803
 Vibration    15          0.663              1.762              1.726
 Vibration    16          0.667              1.748              1.672
 Vibration    17          0.671              1.736              1.626
 Vibration    18          0.685              1.695              1.482
 Vibration    19          0.700              1.653              1.357
 Vibration    20          0.716              1.606              1.238
 Vibration    21          0.730              1.567              1.148
 Vibration    22          0.739              1.542              1.097
 Vibration    23          0.752              1.507              1.028
 Vibration    24          0.770              1.459              0.944
 Vibration    25          0.816              1.342              0.771
 Vibration    26          0.834              1.300              0.716
 Vibration    27          0.868              1.221              0.626
 Vibration    28          0.923              1.103              0.510
 Vibration    29          0.957              1.033              0.451

                           ! Non-Optimized Parameters !
 Normal termination of Gaussian 16 at Tue Sep 17 09:59:09 2024.

 ----------------------------------------------------------------------
 #p M062X/def2tzvp geom=check guess=read scf(xqc,tight) integral(grid=u
 ltrafine) scrf(SMD, solvent=1,4-Dioxane) polar prop=efg volume
 ----------------------------------------------------------------------

 ---
 spe
 ---
 Structure from the checkpoint file:  "smiles_00105_conf_3.chk"
 Charge =  0 Multiplicity = 1

 SCF Done:  E(RM062X) =  -3159.59913220     A.U. after   11 cycles

  Exact polarizability:     269.845      -0.686     248.458       1.203      -0.822     172.268
 Approx polarizability:     278.817      -0.089     256.623      -1.442      -1.718     196.609

 Normal termination of Gaussian 16 at Tue Sep 17 12:09:48 2024.
 Gaussian 16:  ES64L-G16RevC.02  7-Dec-2021

 ----------------------------------------------------------------------
 #p M062X/def2tzvp geom=check guess=read scf(xqc,tight) integral(grid=u
 ltrafine) scrf(SMD, solvent=1,4-Dioxane) nmr=giao
 ----------------------------------------------------------------------

 ---
 spe
 ---
 Structure from the checkpoint file:  "smiles_00105_conf_3.chk"
 Charge =  0 Multiplicity = 1

                         Standard orientation:
 ---------------------------------------------------------------------
 Center     Atomic      Atomic             Coordinates (Angstroms)
 Number     Number       Type             X           Y           Z
 ---------------------------------------------------------------------
      1          6           0       -4.298981   -0.550744   -1.195956
      2          6           0       -3.679894    0.144893    0.027449
      3          6           0       -4.232529   -0.442060    1.336564
      4          6           0       -2.162664    0.092136   -0.010549
      5          6           0       -1.479834   -1.123931    0.027685
      6          6           0       -0.083171   -1.213083   -0.004651
      7          6           0        0.529767   -2.609366    0.051530
      8          6           0        1.348205   -2.852072    1.332428
      9          6           0        1.295516   -2.985710   -1.229303
     10          6           0        0.623287   -0.001312   -0.080454
     11         35           0        2.556044   -0.015987   -0.122722
     12          6           0       -0.010726    1.251445   -0.124496
     13          6           0        0.774619    2.554912   -0.160091
     14          6           0        0.006369    3.729392   -0.776522
     15          6           0        1.266936    2.908484    1.256399
     16          6           0       -1.409416    1.261875   -0.086473
     17          1           0       -4.057115   -1.618783   -1.205075
     18          1           0       -3.924874   -0.116152   -2.127508
     19          1           0       -5.389811   -0.455879   -1.184926
     20          1           0       -3.966940    1.203498   -0.010432
     21          1           0       -3.810897    0.069465    2.206738
     22          1           0       -3.988866   -1.506092    1.424358
     23          1           0       -5.322593   -0.345513    1.374631
     24          1           0       -2.043996   -2.050546    0.085539
     25          1           0       -0.327227   -3.291617    0.104184
     26          1           0        1.692831   -3.890882    1.364819
     27          1           0        2.220623   -2.200062    1.385952
     28          1           0        0.733852   -2.669006    2.219371
     29          1           0        2.174548   -2.357722   -1.377731
     30          1           0        0.650469   -2.878401   -2.106796
     31          1           0        1.624506   -4.028647   -1.173805
     32          1           0        1.657503    2.378202   -0.783255
     33          1           0       -0.399814    3.475266   -1.760155
     34          1           0        0.678211    4.584641   -0.896121
     35          1           0       -0.821968    4.057716   -0.139881
     36          1           0        0.415717    3.091685    1.920836
     37          1           0        1.885953    3.811508    1.235657
     38          1           0        1.861777    2.093978    1.675739
     39          1           0       -1.928338    2.213715   -0.118238
 ---------------------------------------------------------------------

 SCF Done:  E(RM062X) =  -3159.59913220     A.U. after    1 cycles

      1  C    Isotropic =   159.9703   Anisotropy =    36.3177

      2  C    Isotropic =   145.8017   Anisotropy =    26.5526

      3  C    Isotropic =   160.1958   Anisotropy =    36.0127

      4  C    Isotropic =     9.9414   Anisotropy =   236.6240

      5  C    Isotropic =    36.7090   Anisotropy =   171.3640

      6  C    Isotropic =    12.5891   Anisotropy =   220.6181

      7  C    Isotropic =   140.4657   Anisotropy =    35.5252

      8  C    Isotropic =   165.9851   Anisotropy =    31.2243

      9  C    Isotropic =   165.8035   Anisotropy =    31.1850

     10  C    Isotropic =    28.5039   Anisotropy =    99.9562

     11  Br   Isotropic =  2224.8745   Anisotropy =   704.9143

     12  C    Isotropic =    10.1527   Anisotropy =   220.2239

     13  C    Isotropic =   149.1127   Anisotropy =    17.2959

     14  C    Isotropic =   164.3826   Anisotropy =    31.3513

     15  C    Isotropic =   160.7835   Anisotropy =    35.6069

     16  C    Isotropic =    39.9298   Anisotropy =   173.1385

     17  H    Isotropic =    30.6607   Anisotropy =     6.4098

     18  H    Isotropic =    30.7059   Anisotropy =     8.2295

     19  H    Isotropic =    30.6549   Anisotropy =    10.7279

     20  H    Isotropic =    29.0504   Anisotropy =     7.3067

     21  H    Isotropic =    30.7165   Anisotropy =     8.2193

     22  H    Isotropic =    30.6439   Anisotropy =     6.4038

     23  H    Isotropic =    30.6585   Anisotropy =    10.7015

     24  H    Isotropic =    24.0660   Anisotropy =    13.3950

     25  H    Isotropic =    28.7421   Anisotropy =     8.3848

     26  H    Isotropic =    30.8541   Anisotropy =    11.0046

     27  H    Isotropic =    29.2294   Anisotropy =     8.9102

     28  H    Isotropic =    30.8728   Anisotropy =     8.8070

     29  H    Isotropic =    29.2788   Anisotropy =     8.6220

     30  H    Isotropic =    30.8472   Anisotropy =     8.9180

     31  H    Isotropic =    30.8399   Anisotropy =    11.0504

     32  H    Isotropic =    28.3888   Anisotropy =    10.2080

     33  H    Isotropic =    30.6715   Anisotropy =     9.5121

     34  H    Isotropic =    30.5657   Anisotropy =    10.3978

     35  H    Isotropic =    30.3739   Anisotropy =     7.8038

     36  H    Isotropic =    31.3415   Anisotropy =     7.6888

     37  H    Isotropic =    30.6627   Anisotropy =    10.8849

     38  H    Isotropic =    30.0867   Anisotropy =     6.2727

     39  H    Isotropic =    24.0614   Anisotropy =    13.5169

 The electronic state is 1-A.
 Alpha  occ. eigenvalues -- -485.36723 -63.35186 -57.17130 -57.16905 -57.16888
 Alpha  occ. eigenvalues --  -10.59397 -10.55710 -10.55628 -10.54616 -10.54443
 Alpha  occ. eigenvalues --  -10.54340 -10.54284 -10.53717 -10.53696 -10.52186
 Alpha  occ. eigenvalues --  -10.52184 -10.52119 -10.51910 -10.51633 -10.51631
 Alpha  occ. eigenvalues --   -9.01805  -6.84190  -6.83365  -6.83315  -2.87568
 Alpha  occ. eigenvalues --   -2.87279  -2.87225  -2.86455  -2.86454  -0.98125
 Alpha  occ. eigenvalues --   -0.91969  -0.91325  -0.87388  -0.86905  -0.82063
 Alpha  occ. eigenvalues --   -0.79784  -0.77210  -0.77142  -0.76946  -0.71042
 Alpha  occ. eigenvalues --   -0.69685  -0.68078  -0.62625  -0.61530  -0.57219
 Alpha  occ. eigenvalues --   -0.54980  -0.51979  -0.51831  -0.50849  -0.50229
 Alpha  occ. eigenvalues --   -0.49730  -0.48965  -0.48392  -0.47198  -0.46674
 Alpha  occ. eigenvalues --   -0.45327  -0.44823  -0.44685  -0.43284  -0.43066
 Alpha  occ. eigenvalues --   -0.42591  -0.41875  -0.40313  -0.40005  -0.39851
 Alpha  occ. eigenvalues --   -0.39575  -0.39069  -0.38403  -0.37341  -0.36656
 Alpha  occ. eigenvalues --   -0.35868  -0.33140  -0.29643  -0.28239
 Alpha virt. eigenvalues --    0.01634   0.02075   0.04280   0.06302   0.07830
 Alpha virt. eigenvalues --    0.08204   0.10276   0.10677   0.10778   0.11956
 Alpha virt. eigenvalues --    0.12535   0.12851   0.13446   0.13645   0.13750

 Mulliken charges:
               1
     1  C   -0.439853
     2  C   -0.217886
     3  C   -0.439289
     4  C    0.101757
     5  C   -0.232073
     6  C    0.138768
     7  C   -0.215770
     8  C   -0.426773
     9  C   -0.426465
    10  C   -0.110788
    11  Br  -0.138864
    12  C    0.145821
    13  C   -0.178442
    14  C   -0.485413
    15  C   -0.430551
    16  C   -0.196557
    17  H    0.147426
    18  H    0.157513
    19  H    0.151803
    20  H    0.133205
    21  H    0.157263
    22  H    0.147544
    23  H    0.151887
    24  H    0.188271
    25  H    0.129696
    26  H    0.147567
    27  H    0.153456
    28  H    0.153438
    29  H    0.153564
    30  H    0.153466
    31  H    0.147875
    32  H    0.152161
    33  H    0.172342
    34  H    0.162775
    35  H    0.148623
    36  H    0.148936
    37  H    0.151231
    38  H    0.157956
    39  H    0.184379
 Sum of Mulliken charges =  -0.00000

 Dipole moment (field-independent basis, Debye):
    X=             -2.1090    Y=              0.1616    Z=              0.0638  Tot=              2.1162
 Quadrupole moment (field-independent basis, Debye-Ang):
   XX=           -110.5927   YY=           -106.2103   ZZ=           -117.2164
   XY=              0.3267   XZ=             -0.1385   YZ=             -0.6152

 Normal termination of Gaussian 16 at Tue Sep 17 12:59:42 2024.
