 Gaussian 16, Revision C.02,

 ----------------------------------------------------------------------
 #p B3LYP/6-31G(d,p) EmpiricalDispersion=GD3BJ opt freq scf(xqc,tight)
 integral(grid=ultrafine)
 ----------------------------------------------------------------------

 ----------------------------------
 opt-freq conformers_unique/conf_aa
 ----------------------------------
 Symbolic Z-matrix:
 Charge =  0 Multiplicity = 1

 SCF Done:  E(RB3LYP) =  -3120.66044762     A.U. after   15 cycles
 SCF Done:  E(RB3LYP) =  -3120.66336844     A.U. after   13 cycles
 SCF Done:  E(RB3LYP) =  -3120.66288908     A.U. after   13 cycles
 SCF Done:  E(RB3LYP) =  -3120.66359653     A.U. after   12 cycles
 SCF Done:  E(RB3LYP) =  -3120.66366336     A.U. after   11 cycles
 SCF Done:  E(RB3LYP) =  -3120.66365153     A.U. after   11 cycles
 SCF Done:  E(RB3LYP) =  -3120.66368223     A.U. after   11 cycles
 SCF Done:  E(RB3LYP) =  -3120.66368631     A.U. after    9 cycles
 SCF Done:  E(RB3LYP) =  -3120.66368669     A.U. after    8 cycles
 Optimization completed.
    -- Stationary point found.
 Normal termination of Gaussian 16 at Tue Sep 17 09:54:01 2024.

 ----------------------------------------------------------------------
 #P Geom=AllCheck Guess=TCheck SCRF=Check GenChk RB3LYP/6-31G(d,p) Freq
 ----------------------------------------------------------------------

 Structure from the checkpoint file:  "smiles_00007_conf_0.chk"
 ----------------------------------
 opt-freq conformers_unique/conf_aa
 ----------------------------------
 Charge =  0 Multiplicity = 1

 SCF Done:  E(RB3LYP) =  -3120.66368669     A.U. after    1 cycles

                      1                      2                      3
                      A                      A                      A
 Frequencies --     53.4104                66.3902               102.8333
 Red. masses --      6.2235                 5.7971                 6.0912
 Frc consts  --      0.0105                 0.0151                 0.0380
 IR Inten    --      0.6973                 4.1943                 0.7444

                      4                      5                      6
                      A                      A                      A
 Frequencies --    129.4845               136.3026               180.5548
 Red. masses --     11.8785                 5.9819                 6.7575
 Frc consts  --      0.1173                 0.0655                 0.1298
 IR Inten    --      4.2633                 2.0923                 1.4080

                      7                      8                      9
                      A                      A                      A
 Frequencies --    233.2886               246.4925               354.6428
 Red. masses --     14.3759                 6.3915                 7.7791
 Frc consts  --      0.4610                 0.2288                 0.5764
 IR Inten    --      0.4311                 0.8735                 0.9768

                     10                     11                     12
                      A                      A                      A
 Frequencies --    391.2263               405.2275               418.0950
 Red. masses --      6.6074                 4.3368                 8.4508
 Frc consts  --      0.5959                 0.4196                 0.8704
 IR Inten    --      0.6346                 0.4396                11.6004

                     13                     14                     15
                      A                      A                      A
 Frequencies --    520.6872               539.4628               607.1146
 Red. masses --      3.8385                 6.0838                 5.8129
 Frc consts  --      0.6131                 1.0432                 1.2624
 IR Inten    --     11.4110                 3.5163                 0.9623

                     16                     17                     18
                      A                      A                      A
 Frequencies --    610.1355               642.5189               671.3368
 Red. masses --      5.1663                 4.7885                 3.8970
 Frc consts  --      1.1331                 1.1647                 1.0348
 IR Inten    --      2.4868                 0.3827                17.8749

                     19                     20                     21
                      A                      A                      A
 Frequencies --    699.2648               729.8739               749.8968
 Red. masses --      6.8841                 1.2284                 4.1651
 Frc consts  --      1.9833                 0.3856                 1.3800
 IR Inten    --      0.8703                21.9142                 0.6448

                     22                     23                     24
                      A                      A                      A
 Frequencies --    805.3739               847.1596               855.8456
 Red. masses --      1.3238                 7.1311                 1.4365
 Frc consts  --      0.5059                 3.0153                 0.6199
 IR Inten    --     28.5871                24.9177                19.5674

                     25                     26                     27
                      A                      A                      A
 Frequencies --    868.7475               916.7208               926.6376
 Red. masses --      1.3573                 6.3866                 1.4283
 Frc consts  --      0.6035                 3.1622                 0.7226
 IR Inten    --      3.8029                11.0173                 8.7120

                     28                     29                     30
                      A                      A                      A
 Frequencies --    982.2020               987.3497              1071.6643
 Red. masses --      5.9709                 1.3719                 2.2222
 Frc consts  --      3.3938                 0.7880                 1.5036
 IR Inten    --     35.9094                 0.4378                66.6979

                     31                     32                     33
                      A                      A                      A
 Frequencies --   1111.0067              1132.2268              1146.7517
 Red. masses --      2.0084                 1.5293                 2.4066
 Frc consts  --      1.4606                 1.1551                 1.8646
 IR Inten    --      4.8595                24.8556                 9.6756

                     34                     35                     36
                      A                      A                      A
 Frequencies --   1162.9788              1219.2747              1269.6441
 Red. masses --      2.1171                 2.3523                 2.1201
 Frc consts  --      1.6871                 2.0604                 2.0136
 IR Inten    --      7.2473                12.4447                32.4305

                     37                     38                     39
                      A                      A                      A
 Frequencies --   1279.9807              1310.6886              1338.6739
 Red. masses --      1.4486                 2.4984                 2.2383
 Frc consts  --      1.3983                 2.5288                 2.3633
 IR Inten    --     13.7755                 9.5269                63.6987

                     40                     41                     42
                      A                      A                      A
 Frequencies --   1348.3113              1412.9634              1449.0607
 Red. masses --      6.0725                 3.6981                 4.8931
 Frc consts  --      6.5043                 4.3501                 6.0535
 IR Inten    --     10.8698                 2.3172                14.0804

                     43                     44                     45
                      A                      A                      A
 Frequencies --   1519.3761              1537.9313              1566.4020
 Red. masses --      3.3083                 3.4540                 4.6989
 Frc consts  --      4.4997                 4.8133                 6.7928
 IR Inten    --     26.6969               345.2624                 5.2977

                     46                     47                     48
                      A                      A                      A
 Frequencies --   1614.1477              1645.2923              2354.2545
 Red. masses --      7.4565                 6.5542                12.6788
 Frc consts  --     11.4465                10.4533                41.4034
 IR Inten    --      1.0053                 3.1087                13.7600

                     49                     50                     51
                      A                      A                      A
 Frequencies --   3217.8240              3231.4944              3234.9303
 Red. masses --      1.0890                 1.0955                 1.0931
 Frc consts  --      6.6438                 6.7400                 6.7395
 IR Inten    --      1.3894                 0.2244                 0.7475

                     52                     53                     54
                      A                      A                      A
 Frequencies --   3264.0232              3266.8148              3312.0919
 Red. masses --      1.0942                 1.0967                 1.1026
 Frc consts  --      6.8681                 6.8956                 7.1263
 IR Inten    --      2.0380                 2.8245                 1.8961

 - Thermochemistry -
 -------------------
 Temperature   298.150 Kelvin.  Pressure   1.00000 Atm.
 Atom     1 has atomic number  7 and mass  14.00307

 Molecular mass:   246.97451 amu.
 Principal axes and moments of inertia in atomic units:
                           1         2         3
     Eigenvalues --  1303.281737609.820938756.64179
           X            0.99999  -0.00355   0.00267
           Y            0.00352   0.99995   0.00935
           Z           -0.00270  -0.00934   0.99995
 This molecule is an asymmetric top.
 Rotational symmetry number  1.
 Warning -- assumption of classical behavior for rotation
           may cause significant error
 Rotational temperatures (Kelvin)      0.06646     0.01138     0.00989
 Rotational constants (GHZ):           1.38477     0.23716     0.20610
 Zero-point vibrational energy     369024.5 (Joules/Mol)
                                   88.19898 (Kcal/Mol)
 Warning -- explicit consideration of  16 degrees of freedom as
           vibrations may cause significant error
 Vibrational temperatures:     76.85    95.52   147.95   186.30   196.11
          (Kelvin)            259.78   335.65   354.65   510.25   562.89
                              583.03   601.55   749.15   776.17   873.50
                              877.85   924.44   965.90  1006.09  1050.13
                             1078.93  1158.75  1218.87  1231.37  1249.93
                             1318.96  1333.22  1413.17  1420.58  1541.89
                             1598.49  1629.02  1649.92  1673.27  1754.26
                             1826.73  1841.61  1885.79  1926.05  1939.92
                             2032.94  2084.88  2186.04  2212.74  2253.70
                             2322.40  2367.21  3387.25  4629.73  4649.40
                             4654.34  4696.20  4700.22  4765.36

 Zero-point correction=                           0.140554 (Hartree/Particle)
 Thermal correction to Energy=                    0.151903
 Thermal correction to Enthalpy=                  0.152847
 Thermal correction to Gibbs Free Energy=         0.101250
 Sum of electronic and zero-point Energies=          -3120.523133
 Sum of electronic and thermal Energies=             -3120.511783
 Sum of electronic and thermal Enthalpies=           -3120.510839
 Sum of electronic and thermal Free Energies=        -3120.562436

                     E (Thermal)             CV                S
                      KCal/Mol        Cal/Mol-Kelvin    Cal/Mol-Kelvin
 Total                   95.321             42.383            108.595
 Electronic               0.000              0.000              0.000
 Translational            0.889              2.981             42.413
 Rotational               0.889              2.981             32.829
 Vibrational             93.543             36.421             33.353
 Vibration     1          0.596              1.976              4.687
 Vibration     2          0.598              1.970              4.258
 Vibration     3          0.605              1.947              3.400
 Vibration     4          0.612              1.924              2.954
 Vibration     5          0.614              1.917              2.855
 Vibration     6          0.630              1.866              2.323
 Vibration     7          0.654              1.790              1.853
 Vibration     8          0.661              1.769              1.756
 Vibration     9          0.730              1.566              1.145
 Vibration    10          0.759              1.489              0.995
 Vibration    11          0.770              1.459              0.944
 Vibration    12          0.781              1.431              0.898
 Vibration    13          0.876              1.204              0.608
 Vibration    14          0.895              1.163              0.566
 Vibration    15          0.966              1.017              0.438
 Vibration    16          0.969              1.010              0.433

                           ! Non-Optimized Parameters !
 Normal termination of Gaussian 16 at Tue Sep 17 09:55:39 2024.

 ----------------------------------------------------------------------
 #p M062X/def2tzvp geom=check guess=read scf(xqc,tight) integral(grid=u
 ltrafine) scrf(SMD, solvent=1,4-Dioxane) polar prop=efg volume
 ----------------------------------------------------------------------

 ---
 spe
 ---
 Structure from the checkpoint file:  "smiles_00007_conf_0.chk"
 Charge =  0 Multiplicity = 1

 SCF Done:  E(RM062X) =  -3123.09909193     A.U. after   12 cycles

  Exact polarizability:     257.567       8.056     179.132       0.988       4.830      98.997
 Approx polarizability:     252.285      10.931     213.730      -0.086       6.373     124.555

 Normal termination of Gaussian 16 at Tue Sep 17 10:57:16 2024.
 Gaussian 16:  ES64L-G16RevC.02  7-Dec-2021

 ----------------------------------------------------------------------
 #p M062X/def2tzvp geom=check guess=read scf(xqc,tight) integral(grid=u
 ltrafine) scrf(SMD, solvent=1,4-Dioxane) nmr=giao
 ----------------------------------------------------------------------

 ---
 spe
 ---
 Structure from the checkpoint file:  "smiles_00007_conf_0.chk"
 Charge =  0 Multiplicity = 1

                         Standard orientation:
 ---------------------------------------------------------------------
 Center     Atomic      Atomic             Coordinates (Angstroms)
 Number     Number       Type             X           Y           Z
 ---------------------------------------------------------------------
      1          7           0        1.634352    3.180592   -0.316924
      2          6           0        1.086171    2.161393   -0.204774
      3          6           0        0.369559    0.930893   -0.062746
      4          6           0       -1.033840    0.979862   -0.062537
      5          6           0       -1.764726   -0.197031    0.024017
      6         35           0       -3.665170   -0.123995    0.014251
      7          6           0       -1.120816   -1.430307    0.121444
      8          6           0        0.268492   -1.478281    0.143866
      9          6           0        1.032092   -0.310552    0.048065
     10          7           0        2.437242   -0.407745    0.044442
     11          6           0        3.360746    0.387674    0.717492
     12          6           0        4.584741   -0.146493    0.422436
     13          7           0        4.457749   -1.238793   -0.416256
     14          6           0        3.172628   -1.374705   -0.619791
     15          1           0       -1.534196    1.936479   -0.143684
     16          1           0       -1.701101   -2.341850    0.198555
     17          1           0        0.775316   -2.428984    0.260912
     18          1           0        3.056960    1.218987    1.330751
     19          1           0        5.552155    0.189815    0.765791
     20          1           0        2.696112   -2.107708   -1.254792
 ---------------------------------------------------------------------

 SCF Done:  E(RM062X) =  -3123.09909193     A.U. after    1 cycles

      1  N    Isotropic =   -98.2057   Anisotropy =   461.8386

      2  C    Isotropic =    52.4060   Anisotropy =   375.4858

      3  C    Isotropic =    57.8278   Anisotropy =   148.1037

      4  C    Isotropic =    22.7853   Anisotropy =   190.3002

      5  C    Isotropic =    26.0252   Anisotropy =   152.0654

      6  Br   Isotropic =  2052.1664   Anisotropy =  1306.4899

      7  C    Isotropic =    23.5456   Anisotropy =   196.6293

      8  C    Isotropic =    38.2363   Anisotropy =   185.8997

      9  C    Isotropic =    21.8705   Anisotropy =   181.3003

     10  N    Isotropic =    35.7950   Anisotropy =   161.4576

     11  C    Isotropic =    47.9670   Anisotropy =   132.6535

     12  C    Isotropic =    34.8412   Anisotropy =   138.5644

     13  N    Isotropic =   -76.2196   Anisotropy =   475.3716

     14  C    Isotropic =    30.8046   Anisotropy =   107.8047

     15  H    Isotropic =    23.1604   Anisotropy =    11.8373

     16  H    Isotropic =    23.2986   Anisotropy =    10.3621

     17  H    Isotropic =    23.6340   Anisotropy =     8.8628

     18  H    Isotropic =    23.5163   Anisotropy =     6.7362

     19  H    Isotropic =    23.8991   Anisotropy =     4.3782

     20  H    Isotropic =    23.6665   Anisotropy =     6.4027

 The electronic state is 1-A.
 Alpha  occ. eigenvalues -- -485.39410 -63.37882 -57.19834 -57.19588 -57.19581
 Alpha  occ. eigenvalues --  -14.83156 -14.77579 -14.74632 -10.63834 -10.62974
 Alpha  occ. eigenvalues --  -10.61859 -10.60789 -10.60236 -10.59504 -10.58911
 Alpha  occ. eigenvalues --  -10.58507 -10.57902 -10.56149  -9.04527  -6.86956
 Alpha  occ. eigenvalues --   -6.86046  -6.86022  -2.90333  -2.90004  -2.89977
 Alpha  occ. eigenvalues --   -2.89129  -2.89128  -1.15036  -1.04466  -1.02460
 Alpha  occ. eigenvalues --   -0.99418  -0.92386  -0.90330  -0.86019  -0.83692
 Alpha  occ. eigenvalues --   -0.76847  -0.74364  -0.69283  -0.68097  -0.65590
 Alpha  occ. eigenvalues --   -0.61717  -0.59063  -0.56641  -0.54364  -0.53238
 Alpha  occ. eigenvalues --   -0.51607  -0.51302  -0.49982  -0.48154  -0.47532
 Alpha  occ. eigenvalues --   -0.45873  -0.45417  -0.44830  -0.41930  -0.40797
 Alpha  occ. eigenvalues --   -0.36981  -0.36470  -0.35859  -0.34648  -0.31317
 Alpha  occ. eigenvalues --   -0.29540
 Alpha virt. eigenvalues --   -0.04976  -0.02408   0.01620   0.04608   0.05404
 Alpha virt. eigenvalues --    0.07984   0.08067   0.08796   0.09301   0.10054
 Alpha virt. eigenvalues --    0.11849   0.12264   0.12888   0.13159   0.15181

 Mulliken charges:
               1
     1  N   -0.012935
     2  C   -0.225622
     3  C    0.168970
     4  C   -0.207218
     5  C    0.051920
     6  Br  -0.074530
     7  C   -0.162296
     8  C   -0.182705
     9  C    0.143056
    10  N   -0.078267
    11  C   -0.152405
    12  C   -0.128566
    13  N   -0.310405
    14  C   -0.025750
    15  H    0.205915
    16  H    0.194257
    17  H    0.213949
    18  H    0.207981
    19  H    0.170391
    20  H    0.204262
 Sum of Mulliken charges =  -0.00000

 Dipole moment (field-independent basis, Debye):
    X=             -4.0963    Y=             -2.9731    Z=              1.2885  Tot=              5.2230
 Quadrupole moment (field-independent basis, Debye-Ang):
   XX=           -111.8917   YY=            -99.4036   ZZ=            -94.0126
   XY=              0.9927   XZ=              6.2314   YZ=              2.8268

 Normal termination of Gaussian 16 at Tue Sep 17 11:22:48 2024.
