 Gaussian 16, Revision C.02,

 ----------------------------------------------------------------------
 #p B3LYP/6-31G(d,p) EmpiricalDispersion=GD3BJ opt freq scf(xqc,tight)
 integral(grid=ultrafine)
 ----------------------------------------------------------------------

 ----------------------------------
 opt-freq conformers_unique/conf_ab
 ----------------------------------
 Symbolic Z-matrix:
 Charge =  0 Multiplicity = 1

 SCF Done:  E(RB3LYP) =  -3120.66003597     A.U. after   15 cycles
 SCF Done:  E(RB3LYP) =  -3120.66297372     A.U. after   13 cycles
 SCF Done:  E(RB3LYP) =  -3120.66245025     A.U. after   13 cycles
 SCF Done:  E(RB3LYP) =  -3120.66320388     A.U. after   12 cycles
 SCF Done:  E(RB3LYP) =  -3120.66325254     A.U. after   11 cycles
 SCF Done:  E(RB3LYP) =  -3120.66326199     A.U. after   11 cycles
 SCF Done:  E(RB3LYP) =  -3120.66326460     A.U. after   10 cycles
 SCF Done:  E(RB3LYP) =  -3120.66326545     A.U. after    9 cycles
 SCF Done:  E(RB3LYP) =  -3120.66326639     A.U. after    8 cycles
 SCF Done:  E(RB3LYP) =  -3120.66326644     A.U. after    7 cycles
 Optimization completed.
    -- Stationary point found.
 Normal termination of Gaussian 16 at Tue Sep 17 09:54:13 2024.

 ----------------------------------------------------------------------
 #P Geom=AllCheck Guess=TCheck SCRF=Check GenChk RB3LYP/6-31G(d,p) Freq
 ----------------------------------------------------------------------

 Structure from the checkpoint file:  "smiles_00007_conf_1.chk"
 ----------------------------------
 opt-freq conformers_unique/conf_ab
 ----------------------------------
 Charge =  0 Multiplicity = 1

 SCF Done:  E(RB3LYP) =  -3120.66326644     A.U. after    1 cycles

                      1                      2                      3
                      A                      A                      A
 Frequencies --     52.8368                67.0113                99.5444
 Red. masses --      7.4787                 4.4711                 7.4506
 Frc consts  --      0.0123                 0.0118                 0.0435
 IR Inten    --      1.2499                 1.8872                 1.1768

                      4                      5                      6
                      A                      A                      A
 Frequencies --    127.9595               135.7398               180.3842
 Red. masses --     12.4900                 6.0033                 6.5734
 Frc consts  --      0.1205                 0.0652                 0.1260
 IR Inten    --      4.0844                 2.3537                 0.5265

                      7                      8                      9
                      A                      A                      A
 Frequencies --    233.1340               245.7302               354.6245
 Red. masses --     14.5312                 6.4474                 7.6962
 Frc consts  --      0.4653                 0.2294                 0.5702
 IR Inten    --      0.3098                 1.2452                 1.5144

                     10                     11                     12
                      A                      A                      A
 Frequencies --    390.2281               404.0285               419.0604
 Red. masses --      6.5861                 4.4530                 7.7235
 Frc consts  --      0.5909                 0.4283                 0.7991
 IR Inten    --      0.5388                 0.8897                10.2841

                     13                     14                     15
                      A                      A                      A
 Frequencies --    521.4552               535.9491               607.6398
 Red. masses --      3.8136                 6.2721                 5.7346
 Frc consts  --      0.6110                 1.0615                 1.2475
 IR Inten    --     10.7764                 5.2661                 0.8567

                     16                     17                     18
                      A                      A                      A
 Frequencies --    612.5783               641.4974               668.9400
 Red. masses --      5.6526                 4.5966                 3.7584
 Frc consts  --      1.2497                 1.1145                 0.9909
 IR Inten    --      0.9472                 4.5915                19.0094

                     19                     20                     21
                      A                      A                      A
 Frequencies --    699.4180               725.2057               749.9831
 Red. masses --      6.7854                 1.2248                 4.1359
 Frc consts  --      1.9557                 0.3795                 1.3707
 IR Inten    --      1.1393                18.2271                 1.5093

                     22                     23                     24
                      A                      A                      A
 Frequencies --    813.2083               846.9583               855.7154
 Red. masses --      1.3551                 6.7683                 1.4496
 Frc consts  --      0.5280                 2.8606                 0.6254
 IR Inten    --     25.9135                22.8126                18.6353

                     25                     26                     27
                      A                      A                      A
 Frequencies --    866.2139               916.5399               926.4074
 Red. masses --      1.3516                 6.3182                 1.4286
 Frc consts  --      0.5975                 3.1271                 0.7224
 IR Inten    --      5.1601                12.4500                 8.6368

                     28                     29                     30
                      A                      A                      A
 Frequencies --    981.9849               987.2828              1069.1888
 Red. masses --      6.4112                 1.3435                 2.1126
 Frc consts  --      3.6425                 0.7716                 1.4229
 IR Inten    --     35.1113                 0.3564                66.5233

                     31                     32                     33
                      A                      A                      A
 Frequencies --   1108.3719              1125.5490              1148.7886
 Red. masses --      1.9325                 1.7136                 2.4401
 Frc consts  --      1.3987                 1.2791                 1.8973
 IR Inten    --      3.6519                33.2255                 9.0872

                     34                     35                     36
                      A                      A                      A
 Frequencies --   1164.6944              1219.7179              1270.5230
 Red. masses --      1.9044                 2.4137                 2.0059
 Frc consts  --      1.5221                 2.1157                 1.9078
 IR Inten    --     11.2240                13.6474                 3.8015

                     37                     38                     39
                      A                      A                      A
 Frequencies --   1291.3679              1301.8189              1339.7735
 Red. masses --      1.4298                 2.5618                 2.7822
 Frc consts  --      1.4049                 2.5580                 2.9424
 IR Inten    --     17.4177                13.8051                79.2817

                     40                     41                     42
                      A                      A                      A
 Frequencies --   1348.1191              1414.2304              1445.8550
 Red. masses --      4.6351                 3.8834                 4.7483
 Frc consts  --      4.9633                 4.5762                 5.8484
 IR Inten    --      4.2234                 5.3759                23.6123

                     43                     44                     45
                      A                      A                      A
 Frequencies --   1518.4668              1538.0941              1565.7507
 Red. masses --      3.2838                 3.4217                 4.7199
 Frc consts  --      4.4611                 4.7693                 6.8176
 IR Inten    --     28.4228               322.1402                11.1931

                     46                     47                     48
                      A                      A                      A
 Frequencies --   1614.5165              1645.3189              2354.1908
 Red. masses --      7.5050                 6.5583                12.6787
 Frc consts  --     11.5262                10.4602                41.4007
 IR Inten    --      2.1652                 2.1029                12.5991

                     49                     50                     51
                      A                      A                      A
 Frequencies --   3217.3144              3231.1053              3235.3756
 Red. masses --      1.0890                 1.0955                 1.0930
 Frc consts  --      6.6414                 6.7385                 6.7412
 IR Inten    --      1.3622                 0.2338                 0.7986

                     52                     53                     54
                      A                      A                      A
 Frequencies --   3262.2723              3281.9414              3296.3246
 Red. masses --      1.0927                 1.0968                 1.1043
 Frc consts  --      6.8516                 6.9606                 7.0696
 IR Inten    --      4.5925                 0.4589                 1.4047

 - Thermochemistry -
 -------------------
 Temperature   298.150 Kelvin.  Pressure   1.00000 Atm.
 Atom     1 has atomic number  7 and mass  14.00307

 Molecular mass:   246.97451 amu.
 Principal axes and moments of inertia in atomic units:
                           1         2         3
     Eigenvalues --  1292.983787621.773058743.37460
           X            0.99996   0.00941   0.00106
           Y           -0.00942   0.99986   0.01385
           Z           -0.00093  -0.01386   0.99990
 This molecule is an asymmetric top.
 Rotational symmetry number  1.
 Warning -- assumption of classical behavior for rotation
           may cause significant error
 Rotational temperatures (Kelvin)      0.06699     0.01136     0.00991
 Rotational constants (GHZ):           1.39580     0.23679     0.20641
 Zero-point vibrational energy     368904.0 (Joules/Mol)
                                   88.17017 (Kcal/Mol)
 Warning -- explicit consideration of  16 degrees of freedom as
           vibrations may cause significant error
 Vibrational temperatures:     76.02    96.41   143.22   184.11   195.30
          (Kelvin)            259.53   335.43   353.55   510.23   561.45
                              581.31   602.93   750.26   771.11   874.26
                              881.36   922.97   962.46  1006.31  1043.41
                             1079.06  1170.03  1218.58  1231.18  1246.29
                             1318.70  1332.89  1412.86  1420.48  1538.32
                             1594.70  1619.41  1652.85  1675.74  1754.90
                             1828.00  1857.99  1873.03  1927.64  1939.64
                             2034.76  2080.26  2184.73  2212.97  2252.77
                             2322.93  2367.25  3387.16  4629.00  4648.84
                             4654.98  4693.68  4721.98  4742.68

 Zero-point correction=                           0.140508 (Hartree/Particle)
 Thermal correction to Energy=                    0.151873
 Thermal correction to Enthalpy=                  0.152817
 Thermal correction to Gibbs Free Energy=         0.101167
 Sum of electronic and zero-point Energies=          -3120.522758
 Sum of electronic and thermal Energies=             -3120.511394
 Sum of electronic and thermal Enthalpies=           -3120.510450
 Sum of electronic and thermal Free Energies=        -3120.562099

                     E (Thermal)             CV                S
                      KCal/Mol        Cal/Mol-Kelvin    Cal/Mol-Kelvin
 Total                   95.302             42.404            108.706
 Electronic               0.000              0.000              0.000
 Translational            0.889              2.981             42.413
 Rotational               0.889              2.981             32.821
 Vibrational             93.524             36.442             33.471
 Vibration     1          0.596              1.976              4.708
 Vibration     2          0.598              1.970              4.239
 Vibration     3          0.604              1.949              3.463
 Vibration     4          0.611              1.925              2.976
 Vibration     5          0.614              1.918              2.863
 Vibration     6          0.629              1.866              2.324
 Vibration     7          0.654              1.790              1.855
 Vibration     8          0.660              1.770              1.761
 Vibration     9          0.730              1.566              1.146
 Vibration    10          0.758              1.491              0.999
 Vibration    11          0.769              1.461              0.948
 Vibration    12          0.782              1.429              0.895
 Vibration    13          0.876              1.202              0.607
 Vibration    14          0.891              1.171              0.574
 Vibration    15          0.966              1.016              0.437
 Vibration    16          0.972              1.005              0.429

 Optimization completed.
    -- Stationary point found.
 Normal termination of Gaussian 16 at Tue Sep 17 09:55:51 2024.

 ----------------------------------------------------------------------
 #p M062X/def2tzvp geom=check guess=read scf(xqc,tight) integral(grid=u
 ltrafine) scrf(SMD, solvent=1,4-Dioxane) polar prop=efg volume
 ----------------------------------------------------------------------

 ---
 spe
 ---
 Structure from the checkpoint file:  "smiles_00007_conf_1.chk"
 Charge =  0 Multiplicity = 1

 SCF Done:  E(RM062X) =  -3123.09858732     A.U. after   12 cycles

  Exact polarizability:     256.880      -6.798     178.777      -0.089       5.377      99.562
 Approx polarizability:     252.236     -12.168     212.580      -1.126       6.870     125.289

 Normal termination of Gaussian 16 at Tue Sep 17 10:57:03 2024.
 Gaussian 16:  ES64L-G16RevC.02  7-Dec-2021

 ----------------------------------------------------------------------
 #p M062X/def2tzvp geom=check guess=read scf(xqc,tight) integral(grid=u
 ltrafine) scrf(SMD, solvent=1,4-Dioxane) nmr=giao
 ----------------------------------------------------------------------

 ---
 spe
 ---
 Structure from the checkpoint file:  "smiles_00007_conf_1.chk"
 Charge =  0 Multiplicity = 1

                         Standard orientation:
 ---------------------------------------------------------------------
 Center     Atomic      Atomic             Coordinates (Angstroms)
 Number     Number       Type             X           Y           Z
 ---------------------------------------------------------------------
      1          7           0       -1.637935    3.174057   -0.341145
      2          6           0       -1.087613    2.156588   -0.223604
      3          6           0       -0.368697    0.927459   -0.080309
      4          6           0        1.034740    0.977431   -0.062888
      5          6           0        1.764597   -0.200273    0.018149
      6         35           0        3.665165   -0.127320    0.028831
      7          6           0        1.120266   -1.435508    0.090638
      8          6           0       -0.268957   -1.484434    0.094899
      9          6           0       -1.030986   -0.315231    0.010072
     10          7           0       -2.437217   -0.403524    0.006507
     11          6           0       -3.189321   -1.370321   -0.656436
     12          6           0       -4.488150   -1.128575   -0.303823
     13          7           0       -4.568530   -0.059447    0.568670
     14          6           0       -3.337983    0.354637    0.734719
     15          1           0        1.535546    1.934933   -0.129029
     16          1           0        1.700581   -2.347680    0.159908
     17          1           0       -0.778324   -2.436602    0.187060
     18          1           0       -2.729997   -2.076698   -1.328841
     19          1           0       -5.373108   -1.654551   -0.631714
     20          1           0       -3.017082    1.168566    1.366812
 ---------------------------------------------------------------------

 SCF Done:  E(RM062X) =  -3123.09858732     A.U. after    1 cycles

      1  N    Isotropic =   -96.6410   Anisotropy =   468.2525

      2  C    Isotropic =    52.1095   Anisotropy =   374.7858

      3  C    Isotropic =    57.5128   Anisotropy =   147.5419

      4  C    Isotropic =    23.0124   Anisotropy =   190.1369

      5  C    Isotropic =    26.0969   Anisotropy =   151.7411

      6  Br   Isotropic =  2051.7030   Anisotropy =  1307.8756

      7  C    Isotropic =    23.7024   Anisotropy =   196.5126

      8  C    Isotropic =    37.9174   Anisotropy =   187.7001

      9  C    Isotropic =    21.8234   Anisotropy =   180.6899

     10  N    Isotropic =    36.8973   Anisotropy =   157.7039

     11  C    Isotropic =    49.4211   Anisotropy =   120.8876

     12  C    Isotropic =    34.2127   Anisotropy =   143.2817

     13  N    Isotropic =   -75.4292   Anisotropy =   467.1571

     14  C    Isotropic =    29.3922   Anisotropy =   118.4211

     15  H    Isotropic =    23.1626   Anisotropy =    11.7924

     16  H    Isotropic =    23.3150   Anisotropy =    10.3453

     17  H    Isotropic =    23.7110   Anisotropy =     9.4299

     18  H    Isotropic =    24.1178   Anisotropy =     6.0578

     19  H    Isotropic =    23.9187   Anisotropy =     4.1661

     20  H    Isotropic =    23.1704   Anisotropy =     6.5736

 The electronic state is 1-A.
 Alpha  occ. eigenvalues -- -485.39407 -63.37879 -57.19830 -57.19585 -57.19577
 Alpha  occ. eigenvalues --  -14.83107 -14.77533 -14.74504 -10.63797 -10.62977
 Alpha  occ. eigenvalues --  -10.61841 -10.60763 -10.60173 -10.59482 -10.58912
 Alpha  occ. eigenvalues --  -10.58495 -10.57968 -10.56288  -9.04523  -6.86953
 Alpha  occ. eigenvalues --   -6.86043  -6.86018  -2.90330  -2.90001  -2.89973
 Alpha  occ. eigenvalues --   -2.89125  -2.89125  -1.15005  -1.04400  -1.02458
 Alpha  occ. eigenvalues --   -0.99381  -0.92426  -0.90168  -0.85982  -0.83750
 Alpha  occ. eigenvalues --   -0.77205  -0.73886  -0.69328  -0.68324  -0.65529
 Alpha  occ. eigenvalues --   -0.61642  -0.59131  -0.56633  -0.54238  -0.53321
 Alpha  occ. eigenvalues --   -0.51398  -0.51361  -0.50011  -0.48238  -0.47555
 Alpha  occ. eigenvalues --   -0.45686  -0.45504  -0.44762  -0.41922  -0.40784
 Alpha  occ. eigenvalues --   -0.36989  -0.36360  -0.35777  -0.34624  -0.31384
 Alpha  occ. eigenvalues --   -0.29567
 Alpha virt. eigenvalues --   -0.04927  -0.02413   0.01628   0.04587   0.05499
 Alpha virt. eigenvalues --    0.08010   0.08138   0.08753   0.09334   0.10035
 Alpha virt. eigenvalues --    0.11712   0.12204   0.12932   0.13040   0.15008

 Mulliken charges:
               1
     1  N   -0.010550
     2  C   -0.231564
     3  C    0.165717
     4  C   -0.206679
     5  C    0.052545
     6  Br  -0.074678
     7  C   -0.162598
     8  C   -0.177060
     9  C    0.145621
    10  N   -0.081394
    11  C   -0.161688
    12  C   -0.128006
    13  N   -0.309561
    14  C   -0.017640
    15  H    0.206027
    16  H    0.193845
    17  H    0.212188
    18  H    0.201253
    19  H    0.169796
    20  H    0.214428
 Sum of Mulliken charges =  -0.00000

 Dipole moment (field-independent basis, Debye):
    X=              4.2749    Y=             -5.0066    Z=             -0.4624  Tot=              6.5996
 Quadrupole moment (field-independent basis, Debye-Ang):
   XX=           -114.3185   YY=            -96.0210   ZZ=            -94.1655
   XY=             11.9055   XZ=              4.5419   YZ=              4.4050

 Normal termination of Gaussian 16 at Tue Sep 17 11:22:30 2024.
