 Gaussian 16, Revision C.02,

 ----------------------------------------------------------------------
 #p B3LYP/6-31G(d,p) EmpiricalDispersion=GD3BJ opt freq scf(xqc,tight)
 integral(grid=ultrafine)
 ----------------------------------------------------------------------

 ----------------------------------
 opt-freq conformers_unique/conf_ad
 ----------------------------------
 Symbolic Z-matrix:
 Charge =  0 Multiplicity = 1

 SCF Done:  E(RB3LYP) =  -2972.06842640     A.U. after   14 cycles
 SCF Done:  E(RB3LYP) =  -2972.07088725     A.U. after   14 cycles
 SCF Done:  E(RB3LYP) =  -2972.07146324     A.U. after   14 cycles
 SCF Done:  E(RB3LYP) =  -2972.07214781     A.U. after   15 cycles
 SCF Done:  E(RB3LYP) =  -2972.07263310     A.U. after   13 cycles
 SCF Done:  E(RB3LYP) =  -2972.07326589     A.U. after   16 cycles
 SCF Done:  E(RB3LYP) =  -2972.07366094     A.U. after   13 cycles
 SCF Done:  E(RB3LYP) =  -2972.07407562     A.U. after   12 cycles
 SCF Done:  E(RB3LYP) =  -2972.07439526     A.U. after   13 cycles
 SCF Done:  E(RB3LYP) =  -2972.07442598     A.U. after   12 cycles
 SCF Done:  E(RB3LYP) =  -2972.07443430     A.U. after   10 cycles
 SCF Done:  E(RB3LYP) =  -2972.07443617     A.U. after    9 cycles
 SCF Done:  E(RB3LYP) =  -2972.07443635     A.U. after    8 cycles
 Optimization completed.
    -- Stationary point found.
 Normal termination of Gaussian 16 at Tue Sep 17 09:53:40 2024.

 ----------------------------------------------------------------------
 #P Geom=AllCheck Guess=TCheck SCRF=Check GenChk RB3LYP/6-31G(d,p) Freq
 ----------------------------------------------------------------------

 Structure from the checkpoint file:  "smiles_00067_conf_3.chk"
 ----------------------------------
 opt-freq conformers_unique/conf_ad
 ----------------------------------
 Charge =  0 Multiplicity = 1

 SCF Done:  E(RB3LYP) =  -2972.07443635     A.U. after    1 cycles

                      1                      2                      3
                      A                      A                      A
 Frequencies --     52.0067               133.3675               135.1985
 Red. masses --      5.3047                 6.0421                 4.3442
 Frc consts  --      0.0085                 0.0633                 0.0468
 IR Inten    --      3.7124                 2.4746                 1.2061

                      4                      5                      6
                      A                      A                      A
 Frequencies --    168.9616               191.1777               281.2933
 Red. masses --      1.0706                 3.9600                 6.5569
 Frc consts  --      0.0180                 0.0853                 0.3057
 IR Inten    --      0.0932                 0.0960                 2.5166

                      7                      8                      9
                      A                      A                      A
 Frequencies --    300.0636               368.9013               430.2245
 Red. masses --      9.4668                 4.3585                 3.9171
 Frc consts  --      0.5022                 0.3495                 0.4272
 IR Inten    --      1.7003                 0.7630                 2.9612

                     10                     11                     12
                      A                      A                      A
 Frequencies --    462.2458               487.9734               600.8679
 Red. masses --      4.4165                 4.7158                 4.3797
 Frc consts  --      0.5560                 0.6616                 0.9316
 IR Inten    --      0.0280                 2.4317                25.4229

                     13                     14                     15
                      A                      A                      A
 Frequencies --    619.9589               665.4982               720.1620
 Red. masses --      2.8525                 8.1051                 2.3732
 Frc consts  --      0.6460                 2.1150                 0.7252
 IR Inten    --      0.0334                13.5462                16.1725

                     16                     17                     18
                      A                      A                      A
 Frequencies --    818.7102               924.2704               958.4340
 Red. masses --      7.9575                 1.5885                 1.3410
 Frc consts  --      3.1426                 0.7995                 0.7258
 IR Inten    --     27.7366                15.0484                 0.1936

                     19                     20                     21
                      A                      A                      A
 Frequencies --    963.5171               992.8500              1038.2523
 Red. masses --      2.2110                 1.4368                 4.7932
 Frc consts  --      1.2093                 0.8345                 3.0443
 IR Inten    --     31.6856                 0.4914                32.6542

                     22                     23                     24
                      A                      A                      A
 Frequencies --   1049.3507              1105.4144              1129.1173
 Red. masses --      1.9050                 3.4425                 1.8896
 Frc consts  --      1.2359                 2.4784                 1.4194
 IR Inten    --      1.0361                18.5152                12.1110

                     25                     26                     27
                      A                      A                      A
 Frequencies --   1202.9139              1280.3779              1297.0067
 Red. masses --      1.7350                 2.7536                 6.6764
 Frc consts  --      1.4792                 2.6597                 6.6172
 IR Inten    --      1.8776               230.1024                 8.9143

                     28                     29                     30
                      A                      A                      A
 Frequencies --   1346.3481              1397.7028              1462.4221
 Red. masses --      1.3883                 1.3328                 2.5582
 Frc consts  --      1.4827                 1.5341                 3.2236
 IR Inten    --      4.6559                43.4380                30.5957

                     31                     32                     33
                      A                      A                      A
 Frequencies --   1465.5823              1481.5346              1491.5364
 Red. masses --      2.9095                 1.0572                 1.0473
 Frc consts  --      3.6820                 1.3672                 1.3727
 IR Inten    --      4.1259                 7.1909                10.6288

                     34                     35                     36
                      A                      A                      A
 Frequencies --   1601.2557              1630.8249              1789.5893
 Red. masses --      5.7772                 6.0072                10.9938
 Frc consts  --      8.7274                 9.4132                20.7446
 IR Inten    --     33.5324                24.4799               166.1191

                     37                     38                     39
                      A                      A                      A
 Frequencies --   3049.7554              3112.9909              3173.6658
 Red. masses --      1.0382                 1.0999                 1.1017
 Frc consts  --      5.6891                 6.2801                 6.5378
 IR Inten    --      2.3080                 7.0922                 7.9825

                     40                     41                     42
                      A                      A                      A
 Frequencies --   3192.1669              3210.2461              3226.8178
 Red. masses --      1.0916                 1.0917                 1.0916
 Frc consts  --      6.5534                 6.6284                 6.6970
 IR Inten    --      5.0302                 0.7282                 0.2557

 - Thermochemistry -
 -------------------
 Temperature   298.150 Kelvin.  Pressure   1.00000 Atm.
 Atom     1 has atomic number  6 and mass  12.00000

 Molecular mass:   198.96327 amu.
 Principal axes and moments of inertia in atomic units:
                           1         2         3
     Eigenvalues --   897.832883801.126624687.73841
           X            0.99927   0.03808   0.00000
           Y           -0.03808   0.99927   0.00001
           Z           -0.00000  -0.00001   1.00000
 This molecule is an asymmetric top.
 Rotational symmetry number  1.
 Warning -- assumption of classical behavior for rotation
           may cause significant error
 Rotational temperatures (Kelvin)      0.09647     0.02279     0.01848
 Rotational constants (GHZ):           2.01011     0.47479     0.38499
 Zero-point vibrational energy     305110.9 (Joules/Mol)
                                   72.92325 (Kcal/Mol)
 Warning -- explicit consideration of  13 degrees of freedom as
           vibrations may cause significant error
 Vibrational temperatures:     74.83   191.89   194.52   243.10   275.06
          (Kelvin)            404.72   431.72   530.77   619.00   665.07
                              702.08   864.51   891.98   957.50  1036.15
                             1177.94  1329.82  1378.97  1386.29  1428.49
                             1493.81  1509.78  1590.44  1624.55  1730.72
                             1842.18  1866.10  1937.09  2010.98  2104.10
                             2108.65  2131.60  2145.99  2303.85  2346.39
                             2574.82  4387.92  4478.90  4566.20  4592.82
                             4618.83  4642.67

 Zero-point correction=                           0.116211 (Hartree/Particle)
 Thermal correction to Energy=                    0.125356
 Thermal correction to Enthalpy=                  0.126300
 Thermal correction to Gibbs Free Energy=         0.080196
 Sum of electronic and zero-point Energies=          -2971.958226
 Sum of electronic and thermal Energies=             -2971.949080
 Sum of electronic and thermal Enthalpies=           -2971.948136
 Sum of electronic and thermal Free Energies=        -2971.994240

                     E (Thermal)             CV                S
                      KCal/Mol        Cal/Mol-Kelvin    Cal/Mol-Kelvin
 Total                   78.662             32.859             97.035
 Electronic               0.000              0.000              0.000
 Translational            0.889              2.981             41.769
 Rotational               0.889              2.981             31.148
 Vibrational             76.885             26.897             24.118
 Vibration     1          0.596              1.977              4.740
 Vibration     2          0.613              1.920              2.897
 Vibration     3          0.613              1.918              2.871
 Vibration     4          0.625              1.881              2.447
 Vibration     5          0.634              1.852              2.216
 Vibration     6          0.681              1.708              1.526
 Vibration     7          0.693              1.674              1.417
 Vibration     8          0.741              1.536              1.084
 Vibration     9          0.791              1.404              0.858
 Vibration    10          0.820              1.334              0.760
 Vibration    11          0.844              1.277              0.689
 Vibration    12          0.959              1.030              0.448
 Vibration    13          0.980              0.990              0.417

 Optimization completed.
    -- Stationary point found.
 Normal termination of Gaussian 16 at Tue Sep 17 09:54:31 2024.

 ----------------------------------------------------------------------
 #p M062X/def2tzvp geom=check guess=read scf(xqc,tight) integral(grid=u
 ltrafine) scrf(SMD, solvent=1,4-Dioxane) polar prop=efg volume
 ----------------------------------------------------------------------

 ---
 spe
 ---
 Structure from the checkpoint file:  "smiles_00067_conf_3.chk"
 Charge =  0 Multiplicity = 1

 SCF Done:  E(RM062X) =  -2974.51426982     A.U. after   12 cycles

  Exact polarizability:     172.908      -3.700     130.473      -0.002      -0.000      70.267
 Approx polarizability:     181.682     -10.177     148.332      -0.004      -0.001      88.145

 Normal termination of Gaussian 16 at Tue Sep 17 10:16:22 2024.
 Gaussian 16:  ES64L-G16RevC.02  7-Dec-2021

 ----------------------------------------------------------------------
 #p M062X/def2tzvp geom=check guess=read scf(xqc,tight) integral(grid=u
 ltrafine) scrf(SMD, solvent=1,4-Dioxane) nmr=giao
 ----------------------------------------------------------------------

 ---
 spe
 ---
 Structure from the checkpoint file:  "smiles_00067_conf_3.chk"
 Charge =  0 Multiplicity = 1

                         Standard orientation:
 ---------------------------------------------------------------------
 Center     Atomic      Atomic             Coordinates (Angstroms)
 Number     Number       Type             X           Y           Z
 ---------------------------------------------------------------------
      1          6           0       -2.856059   -2.033531   -0.000343
      2          6           0       -2.865321   -0.518215    0.000100
      3          8           0       -3.910298    0.110493    0.000468
      4          6           0       -1.550679    0.203600   -0.000028
      5          6           0       -1.547395    1.606748   -0.000085
      6          7           0       -0.435488    2.345792   -0.000186
      7          6           0        0.740578    1.708473   -0.000130
      8          6           0        0.837965    0.316353   -0.000023
      9         35           0        2.552673   -0.513069    0.000061
     10          6           0       -0.317265   -0.455521    0.000014
     11          1           0       -2.335923   -2.420982    0.882440
     12          1           0       -2.335802   -2.420460   -0.883294
     13          1           0       -3.885648   -2.390237   -0.000590
     14          1           0       -2.496664    2.133329   -0.000125
     15          1           0        1.638381    2.320365   -0.000171
     16          1           0       -0.248050   -1.536529    0.000145
 ---------------------------------------------------------------------

 SCF Done:  E(RM062X) =  -2974.51426982     A.U. after    1 cycles

      1  C    Isotropic =   155.5807   Anisotropy =    49.6654

      2  C    Isotropic =   -40.1430   Anisotropy =   206.9752

      3  O    Isotropic =  -422.8074   Anisotropy =  1170.6716

      4  C    Isotropic =    33.0074   Anisotropy =   189.3495

      5  C    Isotropic =    11.5754   Anisotropy =   219.0940

      6  N    Isotropic =  -149.7826   Anisotropy =   659.0389

      7  C    Isotropic =     4.6031   Anisotropy =   185.8347

      8  C    Isotropic =    27.7200   Anisotropy =   142.8619

      9  Br   Isotropic =  2122.1533   Anisotropy =  1222.4288

     10  C    Isotropic =    22.1440   Anisotropy =   203.0196

     11  H    Isotropic =    29.0515   Anisotropy =     3.9986

     12  H    Isotropic =    29.0514   Anisotropy =     3.9963

     13  H    Isotropic =    29.4124   Anisotropy =     6.5705

     14  H    Isotropic =    21.6064   Anisotropy =     7.9960

     15  H    Isotropic =    22.1423   Anisotropy =    12.0943

     16  H    Isotropic =    22.7711   Anisotropy =    13.5834

 The electronic state is 1-A.
 Alpha  occ. eigenvalues -- -485.39050 -63.37523 -57.19473 -57.19229 -57.19224
 Alpha  occ. eigenvalues --  -19.63075 -14.77218 -10.64807 -10.62099 -10.60328
 Alpha  occ. eigenvalues --  -10.59546 -10.58910 -10.57724 -10.54608  -9.04167
 Alpha  occ. eigenvalues --   -6.86592  -6.85685  -6.85668  -2.89968  -2.89639
 Alpha  occ. eigenvalues --   -2.89618  -2.88774  -2.88774  -1.17797  -1.07629
 Alpha  occ. eigenvalues --   -0.95316  -0.91592  -0.84573  -0.84425  -0.75636
 Alpha  occ. eigenvalues --   -0.72328  -0.64305  -0.61593  -0.58803  -0.55729
 Alpha  occ. eigenvalues --   -0.53041  -0.51478  -0.50165  -0.49634  -0.49558
 Alpha  occ. eigenvalues --   -0.47050  -0.44648  -0.44208  -0.40732  -0.37057
 Alpha  occ. eigenvalues --   -0.35975  -0.35896  -0.33088  -0.31745
 Alpha virt. eigenvalues --   -0.04682  -0.01582   0.02459   0.05360   0.07077
 Alpha virt. eigenvalues --    0.10781   0.11971   0.12911   0.13395   0.14085
 Alpha virt. eigenvalues --    0.14507   0.16454   0.16474   0.17160   0.20146

 Mulliken charges:
               1
     1  C   -0.533375
     2  C    0.288635
     3  O   -0.324875
     4  C    0.006731
     5  C   -0.059980
     6  N   -0.230010
     7  C   -0.050647
     8  C    0.024102
     9  Br  -0.082249
    10  C   -0.156350
    11  H    0.184093
    12  H    0.184102
    13  H    0.172511
    14  H    0.185430
    15  H    0.183185
    16  H    0.208698
 Sum of Mulliken charges =  -0.00000

 Dipole moment (field-independent basis, Debye):
    X=              1.4765    Y=             -3.1847    Z=             -0.0009  Tot=              3.5103
 Quadrupole moment (field-independent basis, Debye-Ang):
   XX=            -82.1435   YY=            -69.8924   ZZ=            -71.2712
   XY=              7.3942   XZ=              0.0043   YZ=              0.0003

 Normal termination of Gaussian 16 at Tue Sep 17 10:24:18 2024.
