 Gaussian 16, Revision C.02,

 ----------------------------------------------------------------------
 #p B3LYP/6-31G(d,p) EmpiricalDispersion=GD3BJ opt freq scf(xqc,tight)
 integral(grid=ultrafine)
 ----------------------------------------------------------------------

 ----------------------------------
 opt-freq conformers_unique/conf_ab
 ----------------------------------
 Symbolic Z-matrix:
 Charge =  0 Multiplicity = 1

 SCF Done:  E(RB3LYP) =  -2972.07289172     A.U. after   14 cycles
 SCF Done:  E(RB3LYP) =  -2972.07436464     A.U. after   12 cycles
 SCF Done:  E(RB3LYP) =  -2972.07443169     A.U. after    9 cycles
 SCF Done:  E(RB3LYP) =  -2972.07443620     A.U. after    9 cycles
 Optimization completed.
    -- Stationary point found.
 Normal termination of Gaussian 16 at Tue Sep 17 09:52:14 2024.

 ----------------------------------------------------------------------
 #P Geom=AllCheck Guess=TCheck SCRF=Check GenChk RB3LYP/6-31G(d,p) Freq
 ----------------------------------------------------------------------

 Structure from the checkpoint file:  "smiles_00067_conf_1.chk"
 ----------------------------------
 opt-freq conformers_unique/conf_ab
 ----------------------------------
 Charge =  0 Multiplicity = 1

 SCF Done:  E(RB3LYP) =  -2972.07443620     A.U. after    1 cycles

                      1                      2                      3
                      A                      A                      A
 Frequencies --     51.8208               133.3749               135.2326
 Red. masses --      5.3031                 6.0428                 4.4019
 Frc consts  --      0.0084                 0.0633                 0.0474
 IR Inten    --      3.7112                 2.4773                 1.1998

                      4                      5                      6
                      A                      A                      A
 Frequencies --    169.9809               191.1974               281.3126
 Red. masses --      1.0679                 3.9517                 6.5598
 Frc consts  --      0.0182                 0.0851                 0.3059
 IR Inten    --      0.0977                 0.0977                 2.5187

                      7                      8                      9
                      A                      A                      A
 Frequencies --    300.0869               368.8881               430.1422
 Red. masses --      9.4657                 4.3589                 3.9158
 Frc consts  --      0.5022                 0.3495                 0.4269
 IR Inten    --      1.6957                 0.7604                 2.9598

                     10                     11                     12
                      A                      A                      A
 Frequencies --    462.2753               487.9323               600.8057
 Red. masses --      4.4174                 4.7143                 4.3784
 Frc consts  --      0.5562                 0.6613                 0.9312
 IR Inten    --      0.0283                 2.4186                25.4495

                     13                     14                     15
                      A                      A                      A
 Frequencies --    619.9705               665.5412               720.1677
 Red. masses --      2.8528                 8.1064                 2.3730
 Frc consts  --      0.6461                 2.1156                 0.7251
 IR Inten    --      0.0335                13.5468                16.1739

                     16                     17                     18
                      A                      A                      A
 Frequencies --    818.7007               924.2816               958.4620
 Red. masses --      7.9579                 1.5887                 1.3411
 Frc consts  --      3.1427                 0.7996                 0.7259
 IR Inten    --     27.6614                15.0375                 0.1953

                     19                     20                     21
                      A                      A                      A
 Frequencies --    963.5906               992.8680              1038.3591
 Red. masses --      2.2120                 1.4368                 4.7957
 Frc consts  --      1.2101                 0.8345                 3.0465
 IR Inten    --     31.7138                 0.4902                32.6255

                     22                     23                     24
                      A                      A                      A
 Frequencies --   1049.4338              1105.4210              1129.1531
 Red. masses --      1.9046                 3.4469                 1.8882
 Frc consts  --      1.2358                 2.4816                 1.4184
 IR Inten    --      1.0366                18.5172                12.0849

                     25                     26                     27
                      A                      A                      A
 Frequencies --   1202.8639              1280.1434              1296.9053
 Red. masses --      1.7352                 2.7590                 6.6522
 Frc consts  --      1.4792                 2.6639                 6.5922
 IR Inten    --      1.8643               231.2649                 7.7990

                     28                     29                     30
                      A                      A                      A
 Frequencies --   1346.3438              1397.6430              1462.3654
 Red. masses --      1.3881                 1.3329                 2.5681
 Frc consts  --      1.4824                 1.5340                 3.2357
 IR Inten    --      4.6141                43.4589                29.8767

                     31                     32                     33
                      A                      A                      A
 Frequencies --   1465.4932              1481.5900              1491.4875
 Red. masses --      2.8936                 1.0573                 1.0473
 Frc consts  --      3.6614                 1.3674                 1.3726
 IR Inten    --      4.8622                 7.1848                10.6357

                     34                     35                     36
                      A                      A                      A
 Frequencies --   1601.4333              1630.7891              1789.9564
 Red. masses --      5.7815                 5.9998                10.9973
 Frc consts  --      8.7359                 9.4011                20.7598
 IR Inten    --     33.5926                24.3392               166.2155

                     37                     38                     39
                      A                      A                      A
 Frequencies --   3049.5010              3112.7200              3173.7279
 Red. masses --      1.0382                 1.0999                 1.1017
 Frc consts  --      5.6881                 6.2790                 6.5381
 IR Inten    --      2.3144                 7.0897                 7.9765

                     40                     41                     42
                      A                      A                      A
 Frequencies --   3192.3468              3210.2841              3226.7687
 Red. masses --      1.0916                 1.0917                 1.0916
 Frc consts  --      6.5541                 6.6286                 6.6968
 IR Inten    --      5.0347                 0.7298                 0.2569

 - Thermochemistry -
 -------------------
 Temperature   298.150 Kelvin.  Pressure   1.00000 Atm.
 Atom     1 has atomic number  6 and mass  12.00000

 Molecular mass:   198.96327 amu.
 Principal axes and moments of inertia in atomic units:
                           1         2         3
     Eigenvalues --   897.803713801.115854687.69812
           X            0.99927   0.03807   0.00000
           Y           -0.03807   0.99927   0.00000
           Z           -0.00000  -0.00000   1.00000
 This molecule is an asymmetric top.
 Rotational symmetry number  1.
 Warning -- assumption of classical behavior for rotation
           may cause significant error
 Rotational temperatures (Kelvin)      0.09647     0.02279     0.01848
 Rotational constants (GHZ):           2.01017     0.47479     0.38500
 Zero-point vibrational energy     305115.7 (Joules/Mol)
                                   72.92440 (Kcal/Mol)
 Warning -- explicit consideration of  13 degrees of freedom as
           vibrations may cause significant error
 Vibrational temperatures:     74.56   191.90   194.57   244.56   275.09
          (Kelvin)            404.75   431.76   530.75   618.88   665.11
                              702.03   864.43   892.00   957.57  1036.16
                             1177.93  1329.84  1379.01  1386.39  1428.52
                             1493.97  1509.90  1590.45  1624.60  1730.65
                             1841.84  1865.96  1937.09  2010.90  2104.02
                             2108.52  2131.68  2145.92  2304.11  2346.34
                             2575.35  4387.55  4478.51  4566.29  4593.08
                             4618.88  4642.60

 Zero-point correction=                           0.116212 (Hartree/Particle)
 Thermal correction to Energy=                    0.125357
 Thermal correction to Enthalpy=                  0.126301
 Thermal correction to Gibbs Free Energy=         0.080199
 Sum of electronic and zero-point Energies=          -2971.958224
 Sum of electronic and thermal Energies=             -2971.949080
 Sum of electronic and thermal Enthalpies=           -2971.948135
 Sum of electronic and thermal Free Energies=        -2971.994237

                     E (Thermal)             CV                S
                      KCal/Mol        Cal/Mol-Kelvin    Cal/Mol-Kelvin
 Total                   78.663             32.858             97.030
 Electronic               0.000              0.000              0.000
 Translational            0.889              2.981             41.769
 Rotational               0.889              2.981             31.148
 Vibrational             76.885             26.896             24.113
 Vibration     1          0.596              1.977              4.747
 Vibration     2          0.613              1.920              2.897
 Vibration     3          0.613              1.918              2.870
 Vibration     4          0.625              1.879              2.436
 Vibration     5          0.634              1.852              2.216
 Vibration     6          0.681              1.708              1.526
 Vibration     7          0.693              1.674              1.416
 Vibration     8          0.741              1.536              1.084
 Vibration     9          0.791              1.405              0.858
 Vibration    10          0.820              1.334              0.760
 Vibration    11          0.844              1.277              0.689
 Vibration    12          0.959              1.030              0.448
 Vibration    13          0.980              0.990              0.417

 Optimization completed.
    -- Stationary point found.
 Normal termination of Gaussian 16 at Tue Sep 17 09:52:59 2024.

 ----------------------------------------------------------------------
 #p M062X/def2tzvp geom=check guess=read scf(xqc,tight) integral(grid=u
 ltrafine) scrf(SMD, solvent=1,4-Dioxane) polar prop=efg volume
 ----------------------------------------------------------------------

 ---
 spe
 ---
 Structure from the checkpoint file:  "smiles_00067_conf_1.chk"
 Charge =  0 Multiplicity = 1

 SCF Done:  E(RM062X) =  -2974.51427230     A.U. after   12 cycles

  Exact polarizability:     172.893      -3.705     130.469      -0.000      -0.000      70.268
 Approx polarizability:     181.662     -10.184     148.333       0.000      -0.000      88.147

 Normal termination of Gaussian 16 at Tue Sep 17 10:14:20 2024.
 Gaussian 16:  ES64L-G16RevC.02  7-Dec-2021

 ----------------------------------------------------------------------
 #p M062X/def2tzvp geom=check guess=read scf(xqc,tight) integral(grid=u
 ltrafine) scrf(SMD, solvent=1,4-Dioxane) nmr=giao
 ----------------------------------------------------------------------

 ---
 spe
 ---
 Structure from the checkpoint file:  "smiles_00067_conf_1.chk"
 Charge =  0 Multiplicity = 1

                         Standard orientation:
 ---------------------------------------------------------------------
 Center     Atomic      Atomic             Coordinates (Angstroms)
 Number     Number       Type             X           Y           Z
 ---------------------------------------------------------------------
      1          6           0       -2.856038   -2.033508   -0.000010
      2          6           0       -2.865480   -0.518228    0.000031
      3          8           0       -3.910355    0.110517   -0.000020
      4          6           0       -1.550463    0.203393    0.000016
      5          6           0       -1.547335    1.606579    0.000006
      6          7           0       -0.435689    2.345941   -0.000005
      7          6           0        0.740472    1.708430   -0.000007
      8          6           0        0.838075    0.316437    0.000002
      9         35           0        2.552656   -0.513028   -0.000002
     10          6           0       -0.317194   -0.455605    0.000013
     11          1           0       -2.335409   -2.420160   -0.882893
     12          1           0       -3.885462   -2.390682   -0.000039
     13          1           0       -2.335442   -2.420205    0.882872
     14          1           0       -2.496855    2.132696    0.000008
     15          1           0        1.638326    2.320212   -0.000016
     16          1           0       -0.247687   -1.536597    0.000019
 ---------------------------------------------------------------------

 SCF Done:  E(RM062X) =  -2974.51427230     A.U. after    1 cycles

      1  C    Isotropic =   155.5715   Anisotropy =    49.6573

      2  C    Isotropic =   -40.1160   Anisotropy =   206.9398

      3  O    Isotropic =  -422.5417   Anisotropy =  1170.3863

      4  C    Isotropic =    33.0114   Anisotropy =   189.3342

      5  C    Isotropic =    11.5589   Anisotropy =   219.1397

      6  N    Isotropic =  -149.7683   Anisotropy =   658.9997

      7  C    Isotropic =     4.5969   Anisotropy =   185.8694

      8  C    Isotropic =    27.7248   Anisotropy =   142.8670

      9  Br   Isotropic =  2122.2439   Anisotropy =  1222.2681

     10  C    Isotropic =    22.1497   Anisotropy =   203.0040

     11  H    Isotropic =    29.0504   Anisotropy =     3.9913

     12  H    Isotropic =    29.4123   Anisotropy =     6.5717

     13  H    Isotropic =    29.0504   Anisotropy =     3.9913

     14  H    Isotropic =    21.6060   Anisotropy =     7.9985

     15  H    Isotropic =    22.1434   Anisotropy =    12.0974

     16  H    Isotropic =    22.7712   Anisotropy =    13.5855

 The electronic state is 1-A.
 Alpha  occ. eigenvalues -- -485.39051 -63.37524 -57.19474 -57.19230 -57.19224
 Alpha  occ. eigenvalues --  -19.63076 -14.77220 -10.64808 -10.62098 -10.60326
 Alpha  occ. eigenvalues --  -10.59544 -10.58910 -10.57723 -10.54609  -9.04167
 Alpha  occ. eigenvalues --   -6.86592  -6.85686  -6.85669  -2.89969  -2.89640
 Alpha  occ. eigenvalues --   -2.89619  -2.88775  -2.88775  -1.17801  -1.07627
 Alpha  occ. eigenvalues --   -0.95318  -0.91592  -0.84574  -0.84424  -0.75633
 Alpha  occ. eigenvalues --   -0.72326  -0.64304  -0.61591  -0.58802  -0.55728
 Alpha  occ. eigenvalues --   -0.53042  -0.51478  -0.50164  -0.49634  -0.49557
 Alpha  occ. eigenvalues --   -0.47052  -0.44649  -0.44208  -0.40733  -0.37057
 Alpha  occ. eigenvalues --   -0.35976  -0.35900  -0.33088  -0.31745
 Alpha virt. eigenvalues --   -0.04679  -0.01582   0.02461   0.05360   0.07077
 Alpha virt. eigenvalues --    0.10782   0.11970   0.12912   0.13395   0.14083
 Alpha virt. eigenvalues --    0.14506   0.16455   0.16475   0.17162   0.20145

 Mulliken charges:
               1
     1  C   -0.533245
     2  C    0.288647
     3  O   -0.324790
     4  C    0.006565
     5  C   -0.059984
     6  N   -0.230068
     7  C   -0.050647
     8  C    0.024131
     9  Br  -0.082188
    10  C   -0.156348
    11  H    0.184082
    12  H    0.172493
    13  H    0.184080
    14  H    0.185421
    15  H    0.183158
    16  H    0.208694
 Sum of Mulliken charges =  -0.00000

 Dipole moment (field-independent basis, Debye):
    X=              1.4763    Y=             -3.1863    Z=              0.0001  Tot=              3.5117
 Quadrupole moment (field-independent basis, Debye-Ang):
   XX=            -82.1391   YY=            -69.8989   ZZ=            -71.2710
   XY=              7.3945   XZ=             -0.0003   YZ=              0.0000

 Normal termination of Gaussian 16 at Tue Sep 17 10:22:14 2024.
