 Gaussian 16, Revision C.02,

 ----------------------------------------------------------------------
 #p B3LYP/6-31G(d,p) EmpiricalDispersion=GD3BJ opt freq scf(xqc,tight)
 integral(grid=ultrafine)
 ----------------------------------------------------------------------

 ----------------------------------
 opt-freq conformers_unique/conf_ae
 ----------------------------------
 Symbolic Z-matrix:
 Charge =  0 Multiplicity = 1

 SCF Done:  E(RB3LYP) =  -2972.06250535     A.U. after   14 cycles
 SCF Done:  E(RB3LYP) =  -2972.06420197     A.U. after   12 cycles
 SCF Done:  E(RB3LYP) =  -2972.06427739     A.U. after   12 cycles
 SCF Done:  E(RB3LYP) =  -2972.06435317     A.U. after   13 cycles
 SCF Done:  E(RB3LYP) =  -2972.06473836     A.U. after   13 cycles
 SCF Done:  E(RB3LYP) =  -2972.06439627     A.U. after   14 cycles
 SCF Done:  E(RB3LYP) =  -2972.06884913     A.U. after   15 cycles
 SCF Done:  E(RB3LYP) =  -2972.06082733     A.U. after   14 cycles
 SCF Done:  E(RB3LYP) =  -2972.07321708     A.U. after   15 cycles
 SCF Done:  E(RB3LYP) =  -2972.07284055     A.U. after   16 cycles
 SCF Done:  E(RB3LYP) =  -2972.07341529     A.U. after   11 cycles
 SCF Done:  E(RB3LYP) =  -2972.07436417     A.U. after   16 cycles
 SCF Done:  E(RB3LYP) =  -2972.07442819     A.U. after   13 cycles
 SCF Done:  E(RB3LYP) =  -2972.07443579     A.U. after    9 cycles
 SCF Done:  E(RB3LYP) =  -2972.07443622     A.U. after    8 cycles
 SCF Done:  E(RB3LYP) =  -2972.07443633     A.U. after    8 cycles
 SCF Done:  E(RB3LYP) =  -2972.07443636     A.U. after    7 cycles
 Optimization completed.
    -- Stationary point found.
 Normal termination of Gaussian 16 at Tue Sep 17 09:54:58 2024.

 ----------------------------------------------------------------------
 #P Geom=AllCheck Guess=TCheck SCRF=Check GenChk RB3LYP/6-31G(d,p) Freq
 ----------------------------------------------------------------------

 Structure from the checkpoint file:  "smiles_00067_conf_4.chk"
 ----------------------------------
 opt-freq conformers_unique/conf_ae
 ----------------------------------
 Charge =  0 Multiplicity = 1

 SCF Done:  E(RB3LYP) =  -2972.07443636     A.U. after    1 cycles

                      1                      2                      3
                      A                      A                      A
 Frequencies --     52.1034               133.3834               135.2105
 Red. masses --      5.3035                 6.0437                 4.3657
 Frc consts  --      0.0085                 0.0634                 0.0470
 IR Inten    --      3.7109                 2.4738                 1.2053

                      4                      5                      6
                      A                      A                      A
 Frequencies --    169.4771               191.2036               281.3187
 Red. masses --      1.0696                 3.9565                 6.5622
 Frc consts  --      0.0181                 0.0852                 0.3060
 IR Inten    --      0.0950                 0.0967                 2.5198

                      7                      8                      9
                      A                      A                      A
 Frequencies --    300.0782               368.9070               430.2357
 Red. masses --      9.4603                 4.3572                 3.9168
 Frc consts  --      0.5019                 0.3494                 0.4272
 IR Inten    --      1.6989                 0.7623                 2.9622

                     10                     11                     12
                      A                      A                      A
 Frequencies --    462.2725               487.9778               600.8465
 Red. masses --      4.4172                 4.7159                 4.3794
 Frc consts  --      0.5561                 0.6616                 0.9315
 IR Inten    --      0.0281                 2.4307                25.4157

                     13                     14                     15
                      A                      A                      A
 Frequencies --    619.9761               665.4958               720.1692
 Red. masses --      2.8526                 8.1054                 2.3732
 Frc consts  --      0.6460                 2.1150                 0.7252
 IR Inten    --      0.0333                13.5424                16.1719

                     16                     17                     18
                      A                      A                      A
 Frequencies --    818.7114               924.2799               958.4410
 Red. masses --      7.9577                 1.5885                 1.3410
 Frc consts  --      3.1427                 0.7995                 0.7258
 IR Inten    --     27.7390                15.0481                 0.1943

                     19                     20                     21
                      A                      A                      A
 Frequencies --    963.5272               992.8705              1038.2448
 Red. masses --      2.2114                 1.4368                 4.7931
 Frc consts  --      1.2096                 0.8345                 3.0441
 IR Inten    --     31.7057                 0.4919                32.6572

                     22                     23                     24
                      A                      A                      A
 Frequencies --   1049.3651              1105.4093              1129.1455
 Red. masses --      1.9050                 3.4430                 1.8893
 Frc consts  --      1.2359                 2.4787                 1.4192
 IR Inten    --      1.0363                18.5316                12.1027

                     25                     26                     27
                      A                      A                      A
 Frequencies --   1202.8987              1280.3893              1296.9720
 Red. masses --      1.7351                 2.7536                 6.6713
 Frc consts  --      1.4792                 2.6598                 6.6118
 IR Inten    --      1.8720               230.1989                 8.6996

                     28                     29                     30
                      A                      A                      A
 Frequencies --   1346.3633              1397.6768              1462.4472
 Red. masses --      1.3883                 1.3329                 2.5584
 Frc consts  --      1.4827                 1.5341                 3.2239
 IR Inten    --      4.6481                43.4492                30.6758

                     31                     32                     33
                      A                      A                      A
 Frequencies --   1465.5259              1481.5842              1491.4949
 Red. masses --      2.9092                 1.0573                 1.0473
 Frc consts  --      3.6814                 1.3674                 1.3726
 IR Inten    --      4.0641                 7.1948                10.6319

                     34                     35                     36
                      A                      A                      A
 Frequencies --   1601.2276              1630.8278              1789.5194
 Red. masses --      5.7757                 6.0065                10.9929
 Frc consts  --      8.7250                 9.4121                20.7413
 IR Inten    --     33.5202                24.5218               166.1222

                     37                     38                     39
                      A                      A                      A
 Frequencies --   3049.6399              3112.8149              3173.7997
 Red. masses --      1.0382                 1.0999                 1.1017
 Frc consts  --      5.6887                 6.2794                 6.5384
 IR Inten    --      2.3143                 7.0933                 7.9730

                     40                     41                     42
                      A                      A                      A
 Frequencies --   3192.1967              3210.1243              3226.7991
 Red. masses --      1.0916                 1.0917                 1.0916
 Frc consts  --      6.5535                 6.6280                 6.6969
 IR Inten    --      5.0274                 0.7302                 0.2558

 - Thermochemistry -
 -------------------
 Temperature   298.150 Kelvin.  Pressure   1.00000 Atm.
 Atom     1 has atomic number  6 and mass  12.00000

 Molecular mass:   198.96327 amu.
 Principal axes and moments of inertia in atomic units:
                           1         2         3
     Eigenvalues --   897.892903800.953724687.62632
           X            0.99927   0.03808  -0.00000
           Y           -0.03808   0.99927  -0.00000
           Z            0.00000   0.00000   1.00000
 This molecule is an asymmetric top.
 Rotational symmetry number  1.
 Warning -- assumption of classical behavior for rotation
           may cause significant error
 Rotational temperatures (Kelvin)      0.09646     0.02279     0.01848
 Rotational constants (GHZ):           2.00997     0.47481     0.38500
 Zero-point vibrational energy     305113.2 (Joules/Mol)
                                   72.92382 (Kcal/Mol)
 Warning -- explicit consideration of  13 degrees of freedom as
           vibrations may cause significant error
 Vibrational temperatures:     74.97   191.91   194.54   243.84   275.10
          (Kelvin)            404.75   431.75   530.77   619.01   665.11
                              702.09   864.48   892.01   957.50  1036.16
                             1177.94  1329.83  1378.98  1386.30  1428.52
                             1493.80  1509.80  1590.44  1624.59  1730.70
                             1842.19  1866.05  1937.12  2010.95  2104.14
                             2108.56  2131.67  2145.93  2303.81  2346.40
                             2574.72  4387.75  4478.65  4566.39  4592.86
                             4618.65  4642.64

 Zero-point correction=                           0.116211 (Hartree/Particle)
 Thermal correction to Energy=                    0.125356
 Thermal correction to Enthalpy=                  0.126300
 Thermal correction to Gibbs Free Energy=         0.080201
 Sum of electronic and zero-point Energies=          -2971.958225
 Sum of electronic and thermal Energies=             -2971.949080
 Sum of electronic and thermal Enthalpies=           -2971.948136
 Sum of electronic and thermal Free Energies=        -2971.994236

                     E (Thermal)             CV                S
                      KCal/Mol        Cal/Mol-Kelvin    Cal/Mol-Kelvin
 Total                   78.662             32.858             97.024
 Electronic               0.000              0.000              0.000
 Translational            0.889              2.981             41.769
 Rotational               0.889              2.981             31.148
 Vibrational             76.885             26.896             24.107
 Vibration     1          0.596              1.977              4.736
 Vibration     2          0.613              1.920              2.897
 Vibration     3          0.613              1.918              2.871
 Vibration     4          0.625              1.880              2.441
 Vibration     5          0.634              1.852              2.216
 Vibration     6          0.681              1.708              1.526
 Vibration     7          0.693              1.674              1.416
 Vibration     8          0.741              1.536              1.084
 Vibration     9          0.791              1.404              0.858
 Vibration    10          0.820              1.334              0.760
 Vibration    11          0.844              1.277              0.689
 Vibration    12          0.959              1.030              0.448
 Vibration    13          0.980              0.990              0.417

 Optimization completed.
    -- Stationary point found.
 Normal termination of Gaussian 16 at Tue Sep 17 09:55:40 2024.

 ----------------------------------------------------------------------
 #p M062X/def2tzvp geom=check guess=read scf(xqc,tight) integral(grid=u
 ltrafine) scrf(SMD, solvent=1,4-Dioxane) polar prop=efg volume
 ----------------------------------------------------------------------

 ---
 spe
 ---
 Structure from the checkpoint file:  "smiles_00067_conf_4.chk"
 Charge =  0 Multiplicity = 1

 SCF Done:  E(RM062X) =  -2974.51426974     A.U. after   12 cycles

  Exact polarizability:     172.907      -3.702     130.475       0.001       0.001      70.267
 Approx polarizability:     181.685     -10.178     148.334       0.002       0.001      88.146

 Normal termination of Gaussian 16 at Tue Sep 17 10:16:58 2024.
 Gaussian 16:  ES64L-G16RevC.02  7-Dec-2021

 ----------------------------------------------------------------------
 #p M062X/def2tzvp geom=check guess=read scf(xqc,tight) integral(grid=u
 ltrafine) scrf(SMD, solvent=1,4-Dioxane) nmr=giao
 ----------------------------------------------------------------------

 ---
 spe
 ---
 Structure from the checkpoint file:  "smiles_00067_conf_4.chk"
 Charge =  0 Multiplicity = 1

                         Standard orientation:
 ---------------------------------------------------------------------
 Center     Atomic      Atomic             Coordinates (Angstroms)
 Number     Number       Type             X           Y           Z
 ---------------------------------------------------------------------
      1          6           0       -2.855736   -2.033632    0.000200
      2          6           0       -2.865279   -0.518310    0.000001
      3          8           0       -3.910331    0.110301   -0.000268
      4          6           0       -1.550715    0.203638   -0.000005
      5          6           0       -1.547436    1.606819    0.000046
      6          7           0       -0.435587    2.345850    0.000120
      7          6           0        0.740562    1.708546    0.000064
      8          6           0        0.837971    0.316470    0.000002
      9         35           0        2.552616   -0.513074   -0.000034
     10          6           0       -0.317290   -0.455435    0.000000
     11          1           0       -2.334844   -2.420597    0.882760
     12          1           0       -2.335696   -2.420547   -0.882913
     13          1           0       -3.885205   -2.390646    0.000656
     14          1           0       -2.496736    2.133371    0.000054
     15          1           0        1.638293    2.320539    0.000064
     16          1           0       -0.248057   -1.536443    0.000018
 ---------------------------------------------------------------------

 SCF Done:  E(RM062X) =  -2974.51426974     A.U. after    1 cycles

      1  C    Isotropic =   155.5761   Anisotropy =    49.6591

      2  C    Isotropic =   -40.1497   Anisotropy =   206.9853

      3  O    Isotropic =  -422.8131   Anisotropy =  1170.7205

      4  C    Isotropic =    33.0036   Anisotropy =   189.3478

      5  C    Isotropic =    11.5810   Anisotropy =   219.0902

      6  N    Isotropic =  -149.7866   Anisotropy =   659.0400

      7  C    Isotropic =     4.6051   Anisotropy =   185.8440

      8  C    Isotropic =    27.7226   Anisotropy =   142.8666

      9  Br   Isotropic =  2122.1608   Anisotropy =  1222.4139

     10  C    Isotropic =    22.1319   Anisotropy =   203.0211

     11  H    Isotropic =    29.0499   Anisotropy =     3.9934

     12  H    Isotropic =    29.0512   Anisotropy =     3.9965

     13  H    Isotropic =    29.4124   Anisotropy =     6.5711

     14  H    Isotropic =    21.6064   Anisotropy =     7.9952

     15  H    Isotropic =    22.1423   Anisotropy =    12.0934

     16  H    Isotropic =    22.7705   Anisotropy =    13.5856

 The electronic state is 1-A.
 Alpha  occ. eigenvalues -- -485.39050 -63.37523 -57.19474 -57.19229 -57.19224
 Alpha  occ. eigenvalues --  -19.63075 -14.77218 -10.64807 -10.62100 -10.60328
 Alpha  occ. eigenvalues --  -10.59546 -10.58910 -10.57724 -10.54609  -9.04167
 Alpha  occ. eigenvalues --   -6.86592  -6.85686  -6.85668  -2.89968  -2.89639
 Alpha  occ. eigenvalues --   -2.89618  -2.88774  -2.88774  -1.17795  -1.07629
 Alpha  occ. eigenvalues --   -0.95317  -0.91592  -0.84573  -0.84425  -0.75636
 Alpha  occ. eigenvalues --   -0.72327  -0.64305  -0.61593  -0.58803  -0.55729
 Alpha  occ. eigenvalues --   -0.53040  -0.51477  -0.50165  -0.49634  -0.49557
 Alpha  occ. eigenvalues --   -0.47052  -0.44649  -0.44207  -0.40732  -0.37056
 Alpha  occ. eigenvalues --   -0.35975  -0.35896  -0.33088  -0.31746
 Alpha virt. eigenvalues --   -0.04682  -0.01582   0.02459   0.05360   0.07077
 Alpha virt. eigenvalues --    0.10781   0.11971   0.12911   0.13394   0.14084
 Alpha virt. eigenvalues --    0.14507   0.16454   0.16474   0.17161   0.20145

 Mulliken charges:
               1
     1  C   -0.533346
     2  C    0.288630
     3  O   -0.324888
     4  C    0.006748
     5  C   -0.059997
     6  N   -0.230015
     7  C   -0.050616
     8  C    0.024072
     9  Br  -0.082244
    10  C   -0.156362
    11  H    0.184082
    12  H    0.184120
    13  H    0.172507
    14  H    0.185426
    15  H    0.183190
    16  H    0.208694
 Sum of Mulliken charges =  -0.00000

 Dipole moment (field-independent basis, Debye):
    X=              1.4771    Y=             -3.1845    Z=              0.0004  Tot=              3.5103
 Quadrupole moment (field-independent basis, Debye-Ang):
   XX=            -82.1460   YY=            -69.8921   ZZ=            -71.2715
   XY=              7.3930   XZ=             -0.0022   YZ=             -0.0003

 Normal termination of Gaussian 16 at Tue Sep 17 10:24:55 2024.
