 Gaussian 16, Revision C.02,

 ----------------------------------------------------------------------
 #p B3LYP/6-31G(d,p) EmpiricalDispersion=GD3BJ opt freq scf(xqc,tight)
 integral(grid=ultrafine)
 ----------------------------------------------------------------------

 ----------------------------------
 opt-freq conformers_unique/conf_ad
 ----------------------------------
 Symbolic Z-matrix:
 Charge =  0 Multiplicity = 1

 SCF Done:  E(RB3LYP) =  -3063.32742656     A.U. after   15 cycles
 SCF Done:  E(RB3LYP) =  -3063.32968140     A.U. after   13 cycles
 SCF Done:  E(RB3LYP) =  -3063.33088162     A.U. after   13 cycles
 SCF Done:  E(RB3LYP) =  -3063.33263647     A.U. after   16 cycles
 SCF Done:  E(RB3LYP) =  -3063.33357854     A.U. after   13 cycles
 SCF Done:  E(RB3LYP) =  -3063.33447412     A.U. after   13 cycles
 SCF Done:  E(RB3LYP) =  -3063.33479446     A.U. after   14 cycles
 SCF Done:  E(RB3LYP) =  -3063.33484396     A.U. after   12 cycles
 SCF Done:  E(RB3LYP) =  -3063.33486213     A.U. after   10 cycles
 SCF Done:  E(RB3LYP) =  -3063.33486543     A.U. after    9 cycles
 SCF Done:  E(RB3LYP) =  -3063.33486579     A.U. after    8 cycles
 SCF Done:  E(RB3LYP) =  -3063.33486593     A.U. after    8 cycles
 SCF Done:  E(RB3LYP) =  -3063.33486602     A.U. after    7 cycles
 SCF Done:  E(RB3LYP) =  -3063.33486606     A.U. after    7 cycles
 Optimization completed.
    -- Stationary point found.
 Normal termination of Gaussian 16 at Tue Sep 17 09:47:15 2024.

 ----------------------------------------------------------------------
 #P Geom=AllCheck Guess=TCheck SCRF=Check GenChk RB3LYP/6-31G(d,p) Freq
 ----------------------------------------------------------------------

 Structure from the checkpoint file:  "smiles_00126_conf_3.chk"
 ----------------------------------
 opt-freq conformers_unique/conf_ad
 ----------------------------------
 Charge =  0 Multiplicity = 1

 SCF Done:  E(RB3LYP) =  -3063.33486606     A.U. after    1 cycles

                      1                      2                      3
                      A                      A                      A
 Frequencies --     29.0683               101.6321               115.7624
 Red. masses --      6.5058                 3.1522                 6.6895
 Frc consts  --      0.0032                 0.0192                 0.0528
 IR Inten    --      1.0189                 0.8154                 0.5080

                      4                      5                      6
                      A                      A                      A
 Frequencies --    128.8963               149.0188               201.3547
 Red. masses --      1.2018                 6.2988                 5.6509
 Frc consts  --      0.0118                 0.0824                 0.1350
 IR Inten    --      0.0683                 3.5520                 5.2421

                      7                      8                      9
                      A                      A                      A
 Frequencies --    225.7127               311.9874               338.1666
 Red. masses --      6.8977                 9.0362                 4.9846
 Frc consts  --      0.2070                 0.5182                 0.3358
 IR Inten    --      0.9503                13.3835                 7.8260

                     10                     11                     12
                      A                      A                      A
 Frequencies --    383.8398               435.4559               503.4305
 Red. masses --     11.2293                 3.8899                 7.5362
 Frc consts  --      0.9748                 0.4346                 1.1253
 IR Inten    --      1.6645                 0.0003                 5.7554

                     13                     14                     15
                      A                      A                      A
 Frequencies --    547.2001               682.5747               757.3016
 Red. masses --      7.7191                 8.2057                 8.6222
 Frc consts  --      1.3618                 2.2525                 2.9134
 IR Inten    --      3.1128                18.1993                21.7246

                     16                     17                     18
                      A                      A                      A
 Frequencies --    764.8755               802.8893               861.7673
 Red. masses --      7.6434                 3.7641                 5.7991
 Frc consts  --      2.6346                 1.4296                 2.5374
 IR Inten    --     61.5514                 0.6007                31.1644

                     19                     20                     21
                      A                      A                      A
 Frequencies --    881.7112              1005.3945              1006.8266
 Red. masses --      1.5625                 9.8230                 1.4010
 Frc consts  --      0.7157                 5.8502                 0.8368
 IR Inten    --     10.1739                 1.1462                 0.0007

                     22                     23                     24
                      A                      A                      A
 Frequencies --   1021.5291              1114.6015              1180.1003
 Red. masses --      8.5452                 1.5096                 1.2763
 Frc consts  --      5.2538                 1.1050                 1.0472
 IR Inten    --     50.2314                 3.0568                 0.8851

                     25                     26                     27
                      A                      A                      A
 Frequencies --   1183.3604              1213.5420              1226.7586
 Red. masses --      3.1217                 2.7134                 2.0415
 Frc consts  --      2.5755                 2.3543                 1.8101
 IR Inten    --     45.8586               107.9459               127.0123

                     28                     29                     30
                      A                      A                      A
 Frequencies --   1260.0009              1306.7346              1383.7702
 Red. masses --      9.2901                 4.7546                 2.8674
 Frc consts  --      8.6899                 4.7834                 3.2350
 IR Inten    --     85.2801               297.4425               258.6794

                     31                     32                     33
                      A                      A                      A
 Frequencies --   1464.0168              1482.9605              1495.4618
 Red. masses --      2.3333                 1.2748                 1.0458
 Frc consts  --      2.9465                 1.6518                 1.3780
 IR Inten    --     14.1449                12.3035                 7.2808

                     34                     35                     36
                      A                      A                      A
 Frequencies --   1508.7537              1598.5884              1609.5475
 Red. masses --      1.0506                 7.1076                 6.2838
 Frc consts  --      1.4090                10.7015                 9.5914
 IR Inten    --      9.2473               128.8688               114.2706

                     37                     38                     39
                      A                      A                      A
 Frequencies --   1841.6583              3069.7710              3149.3821
 Red. masses --     12.0502                 1.0296                 1.1072
 Frc consts  --     24.0803                 5.7167                 6.4706
 IR Inten    --    164.0546                29.5830                15.9826

                     40                     41                     42
                      A                      A                      A
 Frequencies --   3183.3174              3185.4896              3258.1611
 Red. masses --      1.1074                 1.0920                 1.0942
 Frc consts  --      6.6120                 6.5286                 6.8436
 IR Inten    --     12.2861                17.4473                 0.2862

 - Thermochemistry -
 -------------------
 Temperature   298.150 Kelvin.  Pressure   1.00000 Atm.
 Atom     1 has atomic number  6 and mass  12.00000

 Molecular mass:   215.95344 amu.
 Principal axes and moments of inertia in atomic units:
                           1         2         3
     Eigenvalues --   892.495274920.027965801.15406
           X            0.99985   0.01706  -0.00001
           Y           -0.01706   0.99985  -0.00000
           Z            0.00001   0.00000   1.00000
 This molecule is an asymmetric top.
 Rotational symmetry number  1.
 Warning -- assumption of classical behavior for rotation
           may cause significant error
 Rotational temperatures (Kelvin)      0.09705     0.01760     0.01493
 Rotational constants (GHZ):           2.02213     0.36682     0.31110
 Zero-point vibrational energy     286938.5 (Joules/Mol)
                                   68.57995 (Kcal/Mol)
 Warning -- explicit consideration of  13 degrees of freedom as
           vibrations may cause significant error
 Vibrational temperatures:     41.82   146.23   166.56   185.45   214.40
          (Kelvin)            289.70   324.75   448.88   486.55   552.26
                              626.52   724.32   787.30   982.07  1089.59
                             1100.49  1155.18  1239.89  1268.59  1446.54
                             1448.60  1469.75  1603.66  1697.90  1702.59
                             1746.02  1765.03  1812.86  1880.10  1990.94
                             2106.39  2133.65  2151.64  2170.76  2300.01
                             2315.78  2649.74  4416.72  4531.26  4580.08
                             4583.21  4687.77

 Zero-point correction=                           0.109289 (Hartree/Particle)
 Thermal correction to Energy=                    0.119393
 Thermal correction to Enthalpy=                  0.120338
 Thermal correction to Gibbs Free Energy=         0.071213
 Sum of electronic and zero-point Energies=          -3063.225577
 Sum of electronic and thermal Energies=             -3063.215473
 Sum of electronic and thermal Enthalpies=           -3063.214528
 Sum of electronic and thermal Free Energies=        -3063.263653

                     E (Thermal)             CV                S
                      KCal/Mol        Cal/Mol-Kelvin    Cal/Mol-Kelvin
 Total                   74.921             34.902            103.392
 Electronic               0.000              0.000              0.000
 Translational            0.889              2.981             42.013
 Rotational               0.889              2.981             31.610
 Vibrational             73.143             28.941             29.768
 Vibration     1          0.593              1.984              5.892
 Vibration     2          0.604              1.948              3.423
 Vibration     3          0.608              1.936              3.170
 Vibration     4          0.611              1.924              2.962
 Vibration     5          0.618              1.904              2.685
 Vibration     6          0.638              1.838              2.121
 Vibration     7          0.650              1.802              1.913
 Vibration     8          0.700              1.651              1.352
 Vibration     9          0.718              1.599              1.221
 Vibration    10          0.753              1.505              1.024
 Vibration    11          0.796              1.393              0.841
 Vibration    12          0.859              1.242              0.650
 Vibration    13          0.902              1.146              0.550

 Optimization completed.
    -- Stationary point found.
 Normal termination of Gaussian 16 at Tue Sep 17 09:48:13 2024.

 ----------------------------------------------------------------------
 #p M062X/def2tzvp geom=check guess=read scf(xqc,tight) integral(grid=u
 ltrafine) scrf(SMD, solvent=1,4-Dioxane) polar prop=efg volume
 ----------------------------------------------------------------------

 ---
 spe
 ---
 Structure from the checkpoint file:  "smiles_00126_conf_3.chk"
 Charge =  0 Multiplicity = 1

 SCF Done:  E(RM062X) =  -3065.79586787     A.U. after   12 cycles

  Exact polarizability:     167.207      -8.347     128.783      -0.004       0.002      70.241
 Approx polarizability:     163.359     -10.401     154.707      -0.004       0.004      87.118

 Normal termination of Gaussian 16 at Tue Sep 17 10:21:22 2024.
 Gaussian 16:  ES64L-G16RevC.02  7-Dec-2021

 ----------------------------------------------------------------------
 #p M062X/def2tzvp geom=check guess=read scf(xqc,tight) integral(grid=u
 ltrafine) scrf(SMD, solvent=1,4-Dioxane) nmr=giao
 ----------------------------------------------------------------------

 ---
 spe
 ---
 Structure from the checkpoint file:  "smiles_00126_conf_3.chk"
 Charge =  0 Multiplicity = 1

                         Standard orientation:
 ---------------------------------------------------------------------
 Center     Atomic      Atomic             Coordinates (Angstroms)
 Number     Number       Type             X           Y           Z
 ---------------------------------------------------------------------
      1          6           0       -4.657018   -0.505587    0.000397
      2          8           0       -3.410796    0.212955    0.000418
      3          6           0       -2.307599   -0.565133   -0.000188
      4          8           0       -2.322421   -1.771659   -0.000769
      5          6           0       -1.057936    0.280561   -0.000042
      6          6           0       -1.099888    1.674964    0.000050
      7          6           0        0.130965    2.328489   -0.000218
      8          7           0        1.295517    1.670574   -0.000316
      9          6           0        1.195785    0.343366   -0.000144
     10         35           0        2.846499   -0.611296    0.000167
     11          7           0        0.098131   -0.396921   -0.000163
     12          1           0       -4.731296   -1.136167   -0.888258
     13          1           0       -5.435043    0.256302    0.000404
     14          1           0       -4.731296   -1.136135    0.889082
     15          1           0       -2.038485    2.211537    0.000318
     16          1           0        0.193014    3.413922   -0.000362
 ---------------------------------------------------------------------

 SCF Done:  E(RM062X) =  -3065.79586787     A.U. after    1 cycles

      1  C    Isotropic =   129.7726   Anisotropy =    73.6486

      2  O    Isotropic =   128.5080   Anisotropy =   175.7968

      3  C    Isotropic =     4.3846   Anisotropy =    94.5373

      4  O    Isotropic =  -163.4495   Anisotropy =   757.1951

      5  C    Isotropic =     3.2155   Anisotropy =   193.5019

      6  C    Isotropic =    44.7534   Anisotropy =   207.7663

      7  C    Isotropic =    -3.2585   Anisotropy =   224.6277

      8  N    Isotropic =  -134.9321   Anisotropy =   553.5430

      9  C    Isotropic =   -12.5993   Anisotropy =    99.8005

     10  Br   Isotropic =  1799.4154   Anisotropy =  1651.5675

     11  N    Isotropic =  -123.1106   Anisotropy =   528.9756

     12  H    Isotropic =    27.8724   Anisotropy =     7.9498

     13  H    Isotropic =    27.9568   Anisotropy =     7.4885

     14  H    Isotropic =    27.8739   Anisotropy =     7.9530

     15  H    Isotropic =    23.1019   Anisotropy =     9.4660

     16  H    Isotropic =    22.1587   Anisotropy =     7.6091

 The electronic state is 1-A.
 Alpha  occ. eigenvalues -- -485.38067 -63.36573 -57.18517 -57.18285 -57.18260
 Alpha  occ. eigenvalues --  -19.69017 -19.63662 -14.78825 -14.78781 -10.69426
 Alpha  occ. eigenvalues --  -10.68017 -10.63175 -10.61919 -10.59767 -10.58172
 Alpha  occ. eigenvalues --   -9.03241  -6.85660  -6.84793  -6.84711  -2.89039
 Alpha  occ. eigenvalues --   -2.88739  -2.88656  -2.87851  -2.87849  -1.25040
 Alpha  occ. eigenvalues --   -1.15948  -1.13493  -1.02992  -0.94112  -0.87252
 Alpha  occ. eigenvalues --   -0.84385  -0.77955  -0.74992  -0.67664  -0.63661
 Alpha  occ. eigenvalues --   -0.61936  -0.58400  -0.57500  -0.55877  -0.53943
 Alpha  occ. eigenvalues --   -0.53894  -0.50538  -0.48331  -0.48257  -0.44795
 Alpha  occ. eigenvalues --   -0.40324  -0.39942  -0.39774  -0.39203  -0.38206
 Alpha  occ. eigenvalues --   -0.36402  -0.34485  -0.33374
 Alpha virt. eigenvalues --   -0.05921  -0.02145   0.03778   0.06719   0.07462
 Alpha virt. eigenvalues --    0.09454   0.10345   0.10954   0.13211   0.15031
 Alpha virt. eigenvalues --    0.15194   0.17149   0.17258   0.18060   0.20117

 Mulliken charges:
               1
     1  C   -0.267520
     2  O   -0.273446
     3  C    0.344995
     4  O   -0.307149
     5  C    0.128828
     6  C   -0.177525
     7  C   -0.004635
     8  N   -0.226869
     9  C    0.197981
    10  Br  -0.059793
    11  N   -0.213937
    12  H    0.166048
    13  H    0.159611
    14  H    0.166050
    15  H    0.184792
    16  H    0.182568
 Sum of Mulliken charges =  -0.00000

 Dipole moment (field-independent basis, Debye):
    X=             -4.6970    Y=              3.9985    Z=              0.0014  Tot=              6.1684
 Quadrupole moment (field-independent basis, Debye-Ang):
   XX=            -61.9016   YY=            -74.7965   ZZ=            -74.5710
   XY=             -5.9381   XZ=             -0.0028   YZ=             -0.0034

 Normal termination of Gaussian 16 at Tue Sep 17 10:33:46 2024.
