 Gaussian 16, Revision C.02,

 ----------------------------------------------------------------------
 #p B3LYP/6-31G(d,p) EmpiricalDispersion=GD3BJ opt freq scf(xqc,tight)
 integral(grid=ultrafine)
 ----------------------------------------------------------------------

 ----------------------------------
 opt-freq conformers_unique/conf_aa
 ----------------------------------
 Symbolic Z-matrix:
 Charge =  0 Multiplicity = 1

 SCF Done:  E(RB3LYP) =  -3063.33534302     A.U. after   15 cycles
 SCF Done:  E(RB3LYP) =  -3063.33723302     A.U. after   12 cycles
 SCF Done:  E(RB3LYP) =  -3063.33735879     A.U. after   11 cycles
 SCF Done:  E(RB3LYP) =  -3063.33736479     A.U. after    9 cycles
 SCF Done:  E(RB3LYP) =  -3063.33735905     A.U. after   10 cycles
 SCF Done:  E(RB3LYP) =  -3063.33736693     A.U. after    9 cycles
 Optimization completed.
    -- Stationary point found.
 Normal termination of Gaussian 16 at Tue Sep 17 09:45:44 2024.

 ----------------------------------------------------------------------
 #P Geom=AllCheck Guess=TCheck SCRF=Check GenChk RB3LYP/6-31G(d,p) Freq
 ----------------------------------------------------------------------

 Structure from the checkpoint file:  "smiles_00126_conf_0.chk"
 ----------------------------------
 opt-freq conformers_unique/conf_aa
 ----------------------------------
 Charge =  0 Multiplicity = 1

 SCF Done:  E(RB3LYP) =  -3063.33736693     A.U. after    1 cycles

                      1                      2                      3
                      A                      A                      A
 Frequencies --     41.3853               103.5230               104.0760
 Red. masses --      6.5559                 3.3009                 6.2413
 Frc consts  --      0.0066                 0.0208                 0.0398
 IR Inten    --      2.5998                 0.8740                 1.2014

                      4                      5                      6
                      A                      A                      A
 Frequencies --    128.9720               154.0928               206.4245
 Red. masses --      1.2132                 6.0216                 5.6267
 Frc consts  --      0.0119                 0.0842                 0.1413
 IR Inten    --      0.0038                 3.9310                 5.4578

                      7                      8                      9
                      A                      A                      A
 Frequencies --    245.7466               311.4689               340.1782
 Red. masses --      6.3536                15.0589                 5.7555
 Frc consts  --      0.2261                 0.8607                 0.3924
 IR Inten    --      0.8702                 4.4347                26.9753

                     10                     11                     12
                      A                      A                      A
 Frequencies --    362.6515               436.8586               514.4269
 Red. masses --      6.2615                 3.8069                 8.5742
 Frc consts  --      0.4852                 0.4281                 1.3369
 IR Inten    --      1.9159                 0.0015                 2.8859

                     13                     14                     15
                      A                      A                      A
 Frequencies --    545.5924               682.6826               760.3239
 Red. masses --      7.7802                 8.4005                 9.1072
 Frc consts  --      1.3645                 2.3067                 3.1019
 IR Inten    --      2.7187                22.1026                21.7138

                     16                     17                     18
                      A                      A                      A
 Frequencies --    768.4551               803.8055               877.4154
 Red. masses --      7.4991                 3.9774                 6.1752
 Frc consts  --      2.6091                 1.5141                 2.8010
 IR Inten    --     63.1329                 0.8335                 4.7631

                     19                     20                     21
                      A                      A                      A
 Frequencies --    893.8150              1004.5522              1010.7606
 Red. masses --      1.5145                 9.5240                 7.6687
 Frc consts  --      0.7129                 5.6626                 4.6160
 IR Inten    --     10.9325                 7.5155                26.1100

                     22                     23                     24
                      A                      A                      A
 Frequencies --   1011.7433              1104.9611              1179.0523
 Red. masses --      1.3989                 1.4479                 1.2777
 Frc consts  --      0.8437                 1.0416                 1.0466
 IR Inten    --      0.0281                 4.4411                 0.9026

                     25                     26                     27
                      A                      A                      A
 Frequencies --   1184.2638              1211.2578              1228.1976
 Red. masses --      2.5476                 3.0183                 2.2144
 Frc consts  --      2.1051                 2.6091                 1.9681
 IR Inten    --     67.5922               173.4798                72.3213

                     28                     29                     30
                      A                      A                      A
 Frequencies --   1258.2455              1353.2263              1376.2223
 Red. masses --     11.0999                 3.5897                 3.2100
 Frc consts  --     10.3538                 3.8731                 3.5820
 IR Inten    --     56.3421               368.5342               132.0031

                     31                     32                     33
                      A                      A                      A
 Frequencies --   1464.0320              1486.3755              1496.8865
 Red. masses --      2.1386                 1.4217                 1.0461
 Frc consts  --      2.7007                 1.8506                 1.3810
 IR Inten    --     56.8073                36.6636                 7.4532

                     34                     35                     36
                      A                      A                      A
 Frequencies --   1506.3553              1601.8129              1610.9238
 Red. masses --      1.0572                 6.8241                 6.5929
 Frc consts  --      1.4135                10.3162                10.0804
 IR Inten    --      4.4876               157.5775                74.4004

                     37                     38                     39
                      A                      A                      A
 Frequencies --   1807.4796              3069.0320              3147.4728
 Red. masses --     11.6792                 1.0301                 1.1071
 Frc consts  --     22.4808                 5.7164                 6.4620
 IR Inten    --    174.8625                27.9850                17.3455

                     40                     41                     42
                      A                      A                      A
 Frequencies --   3187.2317              3187.8258              3252.1090
 Red. masses --      1.1069                 1.0921                 1.0944
 Frc consts  --      6.6252                 6.5386                 6.8197
 IR Inten    --     13.8119                13.8277                 1.7009

 - Thermochemistry -
 -------------------
 Temperature   298.150 Kelvin.  Pressure   1.00000 Atm.
 Atom     1 has atomic number  6 and mass  12.00000

 Molecular mass:   215.95344 amu.
 Principal axes and moments of inertia in atomic units:
                           1         2         3
     Eigenvalues --  1183.328054346.400795518.34967
           X            0.99900  -0.04463  -0.00000
           Y            0.04463   0.99900   0.00001
           Z            0.00000  -0.00001   1.00000
 This molecule is an asymmetric top.
 Rotational symmetry number  1.
 Warning -- assumption of classical behavior for rotation
           may cause significant error
 Rotational temperatures (Kelvin)      0.07320     0.01993     0.01570
 Rotational constants (GHZ):           1.52514     0.41523     0.32704
 Zero-point vibrational energy     287234.8 (Joules/Mol)
                                   68.65077 (Kcal/Mol)
 Warning -- explicit consideration of  13 degrees of freedom as
           vibrations may cause significant error
 Vibrational temperatures:     59.54   148.95   149.74   185.56   221.71
          (Kelvin)            297.00   353.57   448.13   489.44   521.77
                              628.54   740.15   784.99   982.23  1093.94
                             1105.64  1156.50  1262.41  1286.00  1445.33
                             1454.26  1455.67  1589.79  1696.39  1703.89
                             1742.73  1767.10  1810.33  1946.99  1980.08
                             2106.42  2138.56  2153.69  2167.31  2304.65
                             2317.76  2600.56  4415.65  4528.51  4585.72
                             4586.57  4679.06

 Zero-point correction=                           0.109402 (Hartree/Particle)
 Thermal correction to Energy=                    0.119456
 Thermal correction to Enthalpy=                  0.120401
 Thermal correction to Gibbs Free Energy=         0.071587
 Sum of electronic and zero-point Energies=          -3063.227965
 Sum of electronic and thermal Energies=             -3063.217910
 Sum of electronic and thermal Enthalpies=           -3063.216966
 Sum of electronic and thermal Free Energies=        -3063.265780

                     E (Thermal)             CV                S
                      KCal/Mol        Cal/Mol-Kelvin    Cal/Mol-Kelvin
 Total                   74.960             34.827            102.737
 Electronic               0.000              0.000              0.000
 Translational            0.889              2.981             42.013
 Rotational               0.889              2.981             31.718
 Vibrational             73.183             28.865             29.006
 Vibration     1          0.594              1.981              5.192
 Vibration     2          0.605              1.946              3.387
 Vibration     3          0.605              1.946              3.377
 Vibration     4          0.611              1.924              2.961
 Vibration     5          0.620              1.898              2.621
 Vibration     6          0.641              1.831              2.075
 Vibration     7          0.660              1.770              1.761
 Vibration     8          0.700              1.652              1.355
 Vibration     9          0.720              1.595              1.211
 Vibration    10          0.737              1.549              1.111
 Vibration    11          0.797              1.390              0.837
 Vibration    12          0.869              1.218              0.623
 Vibration    13          0.901              1.149              0.553

                           ! Non-Optimized Parameters !
 Normal termination of Gaussian 16 at Tue Sep 17 09:46:44 2024.

 ----------------------------------------------------------------------
 #p M062X/def2tzvp geom=check guess=read scf(xqc,tight) integral(grid=u
 ltrafine) scrf(SMD, solvent=1,4-Dioxane) polar prop=efg volume
 ----------------------------------------------------------------------

 ---
 spe
 ---
 Structure from the checkpoint file:  "smiles_00126_conf_0.chk"
 Charge =  0 Multiplicity = 1

 SCF Done:  E(RM062X) =  -3065.79768710     A.U. after   12 cycles

  Exact polarizability:     158.396       8.100     137.408       0.010      -0.006      70.289
 Approx polarizability:     163.008      13.971     154.928       0.012      -0.007      87.070

 Normal termination of Gaussian 16 at Tue Sep 17 10:18:52 2024.
 Gaussian 16:  ES64L-G16RevC.02  7-Dec-2021

 ----------------------------------------------------------------------
 #p M062X/def2tzvp geom=check guess=read scf(xqc,tight) integral(grid=u
 ltrafine) scrf(SMD, solvent=1,4-Dioxane) nmr=giao
 ----------------------------------------------------------------------

 ---
 spe
 ---
 Structure from the checkpoint file:  "smiles_00126_conf_0.chk"
 Charge =  0 Multiplicity = 1

                         Standard orientation:
 ---------------------------------------------------------------------
 Center     Atomic      Atomic             Coordinates (Angstroms)
 Number     Number       Type             X           Y           Z
 ---------------------------------------------------------------------
      1          6           0        3.821924   -1.849673   -0.000660
      2          8           0        2.507903   -1.263279   -0.000343
      3          6           0        2.486236    0.071151    0.000554
      4          8           0        3.470550    0.783210    0.000950
      5          6           0        1.088510    0.632403    0.000170
      6          6           0        0.928287    2.017261   -0.000099
      7          6           0       -0.383254    2.484181   -0.000462
      8          7           0       -1.439112    1.660433   -0.000513
      9          6           0       -1.147535    0.363257   -0.000226
     10         35           0       -2.641287   -0.823761    0.000145
     11          7           0        0.047358   -0.210852    0.000119
     12          1           0        3.658617   -2.925923   -0.004745
     13          1           0        4.374731   -1.543711    0.890379
     14          1           0        4.377392   -1.537145   -0.887719
     15          1           0        1.789496    2.672170    0.000014
     16          1           0       -0.605543    3.548246   -0.000765
 ---------------------------------------------------------------------

 SCF Done:  E(RM062X) =  -3065.79768710     A.U. after    1 cycles

      1  C    Isotropic =   129.5380   Anisotropy =    74.0028

      2  O    Isotropic =   127.9887   Anisotropy =   196.6377

      3  C    Isotropic =     0.0263   Anisotropy =   104.3001

      4  O    Isotropic =  -145.4979   Anisotropy =   714.9660

      5  C    Isotropic =     2.7074   Anisotropy =   192.8986

      6  C    Isotropic =    44.3118   Anisotropy =   214.4624

      7  C    Isotropic =    -2.7947   Anisotropy =   224.7727

      8  N    Isotropic =  -134.5749   Anisotropy =   553.7225

      9  C    Isotropic =   -11.6398   Anisotropy =    98.0521

     10  Br   Isotropic =  1803.9371   Anisotropy =  1650.6161

     11  N    Isotropic =  -116.8047   Anisotropy =   518.6863

     12  H    Isotropic =    27.8432   Anisotropy =     7.2951

     13  H    Isotropic =    27.8699   Anisotropy =     8.0784

     14  H    Isotropic =    27.8620   Anisotropy =     8.0611

     15  H    Isotropic =    22.8622   Anisotropy =     8.6413

     16  H    Isotropic =    22.1577   Anisotropy =     7.4287

 The electronic state is 1-A.
 Alpha  occ. eigenvalues -- -485.38146 -63.36653 -57.18596 -57.18364 -57.18340
 Alpha  occ. eigenvalues --  -19.68844 -19.63703 -14.78918 -14.78750 -10.69524
 Alpha  occ. eigenvalues --  -10.68041 -10.63054 -10.61834 -10.59543 -10.57940
 Alpha  occ. eigenvalues --   -9.03319  -6.85737  -6.84872  -6.84791  -2.89116
 Alpha  occ. eigenvalues --   -2.88816  -2.88734  -2.87931  -2.87929  -1.25146
 Alpha  occ. eigenvalues --   -1.15816  -1.13528  -1.03015  -0.93961  -0.86863
 Alpha  occ. eigenvalues --   -0.84821  -0.78147  -0.74510  -0.67351  -0.64216
 Alpha  occ. eigenvalues --   -0.61932  -0.58376  -0.57220  -0.56401  -0.53880
 Alpha  occ. eigenvalues --   -0.53323  -0.49307  -0.49017  -0.48214  -0.44433
 Alpha  occ. eigenvalues --   -0.40321  -0.39939  -0.39739  -0.39043  -0.38852
 Alpha  occ. eigenvalues --   -0.36274  -0.34440  -0.33361
 Alpha virt. eigenvalues --   -0.05888  -0.02115   0.03693   0.06660   0.07884
 Alpha virt. eigenvalues --    0.09337   0.10649   0.11863   0.13314   0.14464
 Alpha virt. eigenvalues --    0.15311   0.17254   0.17302   0.18189   0.19897

 Mulliken charges:
               1
     1  C   -0.274647
     2  O   -0.234839
     3  C    0.363078
     4  O   -0.353599
     5  C    0.136278
     6  C   -0.183496
     7  C    0.000434
     8  N   -0.227329
     9  C    0.191121
    10  Br  -0.062871
    11  N   -0.221963
    12  H    0.164189
    13  H    0.163868
    14  H    0.163818
    15  H    0.192977
    16  H    0.182981
 Sum of Mulliken charges =  -0.00000

 Dipole moment (field-independent basis, Debye):
    X=              2.5195    Y=              0.9221    Z=             -0.0016  Tot=              2.6830
 Quadrupole moment (field-independent basis, Debye-Ang):
   XX=            -77.2948   YY=            -64.9096   ZZ=            -74.5683
   XY=             -6.5899   XZ=             -0.0079   YZ=             -0.0013

 Normal termination of Gaussian 16 at Tue Sep 17 10:31:17 2024.
