 Gaussian 16, Revision C.02,

 ----------------------------------------------------------------------
 #p B3LYP/6-31G(d,p) EmpiricalDispersion=GD3BJ opt freq scf(xqc,tight)
 integral(grid=ultrafine)
 ----------------------------------------------------------------------

 ----------------------------------
 opt-freq conformers_unique/conf_ae
 ----------------------------------
 Symbolic Z-matrix:
 Charge =  0 Multiplicity = 1

 SCF Done:  E(RB3LYP) =  -3063.32377325     A.U. after   15 cycles
 SCF Done:  E(RB3LYP) =  -3063.32426814     A.U. after   13 cycles
 SCF Done:  E(RB3LYP) =  -3063.32554410     A.U. after   13 cycles
 SCF Done:  E(RB3LYP) =  -3063.32556847     A.U. after   13 cycles
 SCF Done:  E(RB3LYP) =  -3063.32602141     A.U. after   13 cycles
 SCF Done:  E(RB3LYP) =  -3063.32609413     A.U. after   12 cycles
 SCF Done:  E(RB3LYP) =  -3063.32617397     A.U. after   13 cycles
 SCF Done:  E(RB3LYP) =  -3063.32628889     A.U. after   12 cycles
 SCF Done:  E(RB3LYP) =  -3063.32632235     A.U. after   10 cycles
 SCF Done:  E(RB3LYP) =  -3063.32634385     A.U. after   11 cycles
 SCF Done:  E(RB3LYP) =  -3063.32634975     A.U. after    9 cycles
 SCF Done:  E(RB3LYP) =  -3063.32635157     A.U. after    8 cycles
 SCF Done:  E(RB3LYP) =  -3063.32635311     A.U. after    9 cycles
 SCF Done:  E(RB3LYP) =  -3063.32635345     A.U. after    9 cycles
 Optimization completed.
    -- Stationary point found.
 Normal termination of Gaussian 16 at Tue Sep 17 09:47:15 2024.

 ----------------------------------------------------------------------
 #P Geom=AllCheck Guess=TCheck SCRF=Check GenChk RB3LYP/6-31G(d,p) Freq
 ----------------------------------------------------------------------

 Structure from the checkpoint file:  "smiles_00126_conf_4.chk"
 ----------------------------------
 opt-freq conformers_unique/conf_ae
 ----------------------------------
 Charge =  0 Multiplicity = 1

 SCF Done:  E(RB3LYP) =  -3063.32635345     A.U. after    1 cycles

                      1                      2                      3
                      A                      A                      A
 Frequencies --     31.7609               105.4304               121.3393
 Red. masses --      5.2389                 7.2419                 3.9416
 Frc consts  --      0.0031                 0.0474                 0.0342
 IR Inten    --      6.1200                 3.0269                 3.1276

                      4                      5                      6
                      A                      A                      A
 Frequencies --    138.2317               155.7149               199.5948
 Red. masses --      8.9845                 6.1855                 1.0833
 Frc consts  --      0.1011                 0.0884                 0.0254
 IR Inten    --      0.0314                 6.0510                 0.4000

                      7                      8                      9
                      A                      A                      A
 Frequencies --    279.6314               313.1787               317.3281
 Red. masses --      5.7307                 6.9885                 8.1095
 Frc consts  --      0.2640                 0.4038                 0.4811
 IR Inten    --      5.7688                 3.0377                 7.5797

                     10                     11                     12
                      A                      A                      A
 Frequencies --    396.6302               427.9691               490.0460
 Red. masses --      7.9859                 4.3927                 5.4901
 Frc consts  --      0.7402                 0.4740                 0.7768
 IR Inten    --      2.1711                 1.3417                 3.8765

                     13                     14                     15
                      A                      A                      A
 Frequencies --    590.6641               641.8166               705.5535
 Red. masses --      8.0196                 8.3157                 8.3594
 Frc consts  --      1.6485                 2.0182                 2.4518
 IR Inten    --      1.7728                40.7256                13.8843

                     16                     17                     18
                      A                      A                      A
 Frequencies --    752.2419               804.7551               825.4156
 Red. masses --      8.7489                 3.7836                 8.9875
 Frc consts  --      2.9169                 1.4437                 3.6077
 IR Inten    --     20.9896                 0.5432                52.9582

                     19                     20                     21
                      A                      A                      A
 Frequencies --    886.9641              1008.2877              1010.0940
 Red. masses --      1.5634                 2.4672                 2.4589
 Frc consts  --      0.7247                 1.4779                 1.4781
 IR Inten    --     12.1992                 0.4043                 1.1280

                     22                     23                     24
                      A                      A                      A
 Frequencies --   1047.0615              1111.3380              1161.5958
 Red. masses --      7.6243                 1.4638                 2.0759
 Frc consts  --      4.9249                 1.0652                 1.6503
 IR Inten    --     44.2028                 5.0855                74.5471

                     25                     26                     27
                      A                      A                      A
 Frequencies --   1173.6388              1213.2044              1225.2655
 Red. masses --      1.2977                 3.4252                 2.1633
 Frc consts  --      1.0532                 2.9704                 1.9135
 IR Inten    --      5.1370               173.4982                37.5978

                     28                     29                     30
                      A                      A                      A
 Frequencies --   1261.2933              1341.2746              1372.3986
 Red. masses --      9.5136                 3.7305                 3.0302
 Frc consts  --      8.9172                 3.9541                 3.3626
 IR Inten    --     31.9331               295.8368               139.3410

                     31                     32                     33
                      A                      A                      A
 Frequencies --   1468.2483              1498.8434              1502.6559
 Red. masses --      2.5029                 1.1910                 1.0777
 Frc consts  --      3.1791                 1.5764                 1.4337
 IR Inten    --     69.1565                 6.6899                61.6665

                     34                     35                     36
                      A                      A                      A
 Frequencies --   1506.6806              1596.0389              1610.2716
 Red. masses --      1.0775                 6.9408                 6.3872
 Frc consts  --      1.4411                10.4171                 9.7579
 IR Inten    --      7.3739               144.8108                81.8266

                     37                     38                     39
                      A                      A                      A
 Frequencies --   1815.2882              3072.5325              3157.3175
 Red. masses --     12.5942                 1.0307                 1.1059
 Frc consts  --     24.4519                 5.7330                 6.4956
 IR Inten    --    254.6761                27.4281                28.7602

                     40                     41                     42
                      A                      A                      A
 Frequencies --   3182.8152              3189.9346              3254.1804
 Red. masses --      1.1080                 1.0921                 1.0946
 Frc consts  --      6.6130                 6.5474                 6.8295
 IR Inten    --     12.0197                14.3416                 1.5978

 - Thermochemistry -
 -------------------
 Temperature   298.150 Kelvin.  Pressure   1.00000 Atm.
 Atom     1 has atomic number  6 and mass  12.00000

 Molecular mass:   215.95344 amu.
 Principal axes and moments of inertia in atomic units:
                           1         2         3
     Eigenvalues --  1258.483573829.537514921.83320
           X            0.99959  -0.02849   0.00302
           Y            0.02853   0.99951  -0.01260
           Z           -0.00266   0.01268   0.99992
 This molecule is an asymmetric top.
 Rotational symmetry number  1.
 Warning -- assumption of classical behavior for rotation
           may cause significant error
 Rotational temperatures (Kelvin)      0.06882     0.02262     0.01760
 Rotational constants (GHZ):           1.43406     0.47127     0.36668
 Zero-point vibrational energy     286891.6 (Joules/Mol)
                                   68.56873 (Kcal/Mol)
 Warning -- explicit consideration of  13 degrees of freedom as
           vibrations may cause significant error
 Vibrational temperatures:     45.70   151.69   174.58   198.88   224.04
          (Kelvin)            287.17   402.33   450.59   456.56   570.66
                              615.75   705.07   849.83   923.43  1015.13
                             1082.31  1157.86  1187.59  1276.14  1450.70
                             1453.30  1506.49  1598.97  1671.28  1688.60
                             1745.53  1762.88  1814.72  1929.79  1974.58
                             2112.48  2156.50  2161.99  2167.78  2296.34
                             2316.82  2611.79  4420.69  4542.68  4579.36
                             4589.60  4682.04

 Zero-point correction=                           0.109271 (Hartree/Particle)
 Thermal correction to Energy=                    0.119298
 Thermal correction to Enthalpy=                  0.120242
 Thermal correction to Gibbs Free Energy=         0.071512
 Sum of electronic and zero-point Energies=          -3063.217082
 Sum of electronic and thermal Energies=             -3063.207056
 Sum of electronic and thermal Enthalpies=           -3063.206112
 Sum of electronic and thermal Free Energies=        -3063.254842

                     E (Thermal)             CV                S
                      KCal/Mol        Cal/Mol-Kelvin    Cal/Mol-Kelvin
 Total                   74.860             34.971            102.561
 Electronic               0.000              0.000              0.000
 Translational            0.889              2.981             42.013
 Rotational               0.889              2.981             31.540
 Vibrational             73.083             29.010             29.009
 Vibration     1          0.594              1.983              5.716
 Vibration     2          0.605              1.945              3.351
 Vibration     3          0.609              1.931              3.079
 Vibration     4          0.614              1.915              2.828
 Vibration     5          0.620              1.896              2.601
 Vibration     6          0.638              1.840              2.137
 Vibration     7          0.680              1.711              1.536
 Vibration     8          0.701              1.649              1.345
 Vibration     9          0.704              1.640              1.324
 Vibration    10          0.763              1.477              0.975
 Vibration    11          0.789              1.409              0.865
 Vibration    12          0.846              1.272              0.683
 Vibration    13          0.948              1.052              0.466

                           ! Non-Optimized Parameters !
 Normal termination of Gaussian 16 at Tue Sep 17 09:48:19 2024.

 ----------------------------------------------------------------------
 #p M062X/def2tzvp geom=check guess=read scf(xqc,tight) integral(grid=u
 ltrafine) scrf(SMD, solvent=1,4-Dioxane) polar prop=efg volume
 ----------------------------------------------------------------------

 ---
 spe
 ---
 Structure from the checkpoint file:  "smiles_00126_conf_4.chk"
 Charge =  0 Multiplicity = 1

 SCF Done:  E(RM062X) =  -3065.78649702     A.U. after   13 cycles

  Exact polarizability:     152.916      12.503     135.613      -2.564       2.867      73.692
 Approx polarizability:     163.520      15.055     151.354      -4.306       4.985      91.356

 Normal termination of Gaussian 16 at Tue Sep 17 10:26:05 2024.
 Gaussian 16:  ES64L-G16RevC.02  7-Dec-2021

 ----------------------------------------------------------------------
 #p M062X/def2tzvp geom=check guess=read scf(xqc,tight) integral(grid=u
 ltrafine) scrf(SMD, solvent=1,4-Dioxane) nmr=giao
 ----------------------------------------------------------------------

 ---
 spe
 ---
 Structure from the checkpoint file:  "smiles_00126_conf_4.chk"
 Charge =  0 Multiplicity = 1

                         Standard orientation:
 ---------------------------------------------------------------------
 Center     Atomic      Atomic             Coordinates (Angstroms)
 Number     Number       Type             X           Y           Z
 ---------------------------------------------------------------------
      1          6           0        1.900431   -2.268472    0.684853
      2          8           0        2.828775   -1.437824   -0.039935
      3          6           0        2.650934   -0.130090   -0.266482
      4          8           0        3.564769    0.542566   -0.690202
      5          6           0        1.307460    0.525438   -0.024386
      6          6           0        1.275754    1.897975    0.227204
      7          6           0        0.016624    2.467349    0.386993
      8          7           0       -1.115149    1.754990    0.286699
      9          6           0       -0.951067    0.465360    0.024669
     10         35           0       -2.543053   -0.571481   -0.140884
     11          7           0        0.186609   -0.200574   -0.131287
     12          1           0        2.484612   -3.138940    0.984841
     13          1           0        1.065246   -2.561369    0.050583
     14          1           0        1.518120   -1.759724    1.572376
     15          1           0        2.191809    2.470940    0.280165
     16          1           0       -0.102302    3.526728    0.599057
 ---------------------------------------------------------------------

 SCF Done:  E(RM062X) =  -3065.78649702     A.U. after    1 cycles

      1  C    Isotropic =   122.5264   Anisotropy =    75.4508

      2  O    Isotropic =   131.4252   Anisotropy =   181.6593

      3  C    Isotropic =     1.2423   Anisotropy =    99.9422

      4  O    Isotropic =  -188.6233   Anisotropy =   705.8124

      5  C    Isotropic =     0.0937   Anisotropy =   196.0647

      6  C    Isotropic =    41.2641   Anisotropy =   213.9331

      7  C    Isotropic =    -3.4779   Anisotropy =   225.6743

      8  N    Isotropic =  -131.9303   Anisotropy =   553.2883

      9  C    Isotropic =    -8.9446   Anisotropy =    98.1303

     10  Br   Isotropic =  1804.1621   Anisotropy =  1649.2283

     11  N    Isotropic =  -114.5213   Anisotropy =   515.0380

     12  H    Isotropic =    27.8151   Anisotropy =     7.4301

     13  H    Isotropic =    26.7164   Anisotropy =     6.6404

     14  H    Isotropic =    27.8555   Anisotropy =     4.9100

     15  H    Isotropic =    23.0628   Anisotropy =     8.2635

     16  H    Isotropic =    22.1366   Anisotropy =     7.2855

 The electronic state is 1-A.
 Alpha  occ. eigenvalues -- -485.38720 -63.37225 -57.19169 -57.18936 -57.18912
 Alpha  occ. eigenvalues --  -19.68374 -19.63138 -14.79490 -14.79162 -10.69725
 Alpha  occ. eigenvalues --  -10.68567 -10.63657 -10.62220 -10.59643 -10.58331
 Alpha  occ. eigenvalues --   -9.03891  -6.86309  -6.85441  -6.85363  -2.89688
 Alpha  occ. eigenvalues --   -2.89386  -2.89307  -2.88501  -2.88499  -1.24297
 Alpha  occ. eigenvalues --   -1.15672  -1.14050  -1.03489  -0.94323  -0.87277
 Alpha  occ. eigenvalues --   -0.83444  -0.80026  -0.75501  -0.67954  -0.64024
 Alpha  occ. eigenvalues --   -0.62178  -0.57914  -0.56836  -0.56519  -0.54175
 Alpha  occ. eigenvalues --   -0.53433  -0.50113  -0.49498  -0.48629  -0.43681
 Alpha  occ. eigenvalues --   -0.41029  -0.40476  -0.40313  -0.38802  -0.37828
 Alpha  occ. eigenvalues --   -0.36459  -0.34726  -0.33760
 Alpha virt. eigenvalues --   -0.06001  -0.02624   0.03099   0.05718   0.07253
 Alpha virt. eigenvalues --    0.09550   0.10598   0.11582   0.13007   0.14225
 Alpha virt. eigenvalues --    0.14926   0.15427   0.17451   0.18461   0.19580

 Mulliken charges:
               1
     1  C   -0.276937
     2  O   -0.222737
     3  C    0.354198
     4  O   -0.326168
     5  C    0.130653
     6  C   -0.186995
     7  C    0.000610
     8  N   -0.228060
     9  C    0.204426
    10  Br  -0.059672
    11  N   -0.276823
    12  H    0.166754
    13  H    0.171968
    14  H    0.168260
    15  H    0.195470
    16  H    0.185054
 Sum of Mulliken charges =  -0.00000

 Dipole moment (field-independent basis, Debye):
    X=             -0.6551    Y=              0.5855    Z=              2.3472  Tot=              2.5063
 Quadrupole moment (field-independent basis, Debye-Ang):
   XX=            -94.4007   YY=            -63.1872   ZZ=            -74.8518
   XY=              1.4221   XZ=              7.0401   YZ=             -0.4045

 Normal termination of Gaussian 16 at Tue Sep 17 10:39:55 2024.
