 Gaussian 16, Revision C.02,

 ----------------------------------------------------------------------
 #p B3LYP/6-31G(d,p) EmpiricalDispersion=GD3BJ opt freq scf(xqc,tight)
 integral(grid=ultrafine)
 ----------------------------------------------------------------------

 ----------------------------------
 opt-freq conformers_unique/conf_aa
 ----------------------------------
 Symbolic Z-matrix:
 Charge =  0 Multiplicity = 1

 SCF Done:  E(RB3LYP) =  -800.145052643     A.U. after   15 cycles
 SCF Done:  E(RB3LYP) =  -800.146904833     A.U. after   12 cycles
 SCF Done:  E(RB3LYP) =  -800.146945418     A.U. after   11 cycles
 SCF Done:  E(RB3LYP) =  -800.146908895     A.U. after   12 cycles
 SCF Done:  E(RB3LYP) =  -800.146956555     A.U. after   12 cycles
 SCF Done:  E(RB3LYP) =  -800.146957328     A.U. after    9 cycles
 Optimization completed.
    -- Stationary point found.
 Normal termination of Gaussian 16 at Tue Sep 17 09:55:25 2024.

 ----------------------------------------------------------------------
 #P Geom=AllCheck Guess=TCheck SCRF=Check GenChk RB3LYP/6-31G(d,p) Freq
 ----------------------------------------------------------------------

 Structure from the checkpoint file:  "smiles_00057_conf_0.chk"
 ----------------------------------
 opt-freq conformers_unique/conf_aa
 ----------------------------------
 Charge =  0 Multiplicity = 1

 SCF Done:  E(RB3LYP) =  -800.146957328     A.U. after    1 cycles

                      1                      2                      3
                      A                      A                      A
 Frequencies --    131.1697               136.4961               192.3146
 Red. masses --      6.3266                13.3480                 7.7557
 Frc consts  --      0.0641                 0.1465                 0.1690
 IR Inten    --      3.0068                 3.5715                 1.7943

                      4                      5                      6
                      A                      A                      A
 Frequencies --    301.2816               376.2551               411.4457
 Red. masses --      7.2877                 4.5972                14.6704
 Frc consts  --      0.3897                 0.3834                 1.4632
 IR Inten    --      0.8599                 1.3379                 2.8954

                      7                      8                      9
                      A                      A                      A
 Frequencies --    479.7249               485.1106               579.0572
 Red. masses --      4.0415                 9.5196                 8.6064
 Frc consts  --      0.5480                 1.3199                 1.7003
 IR Inten    --     15.9305                 1.1398                 4.1823

                     10                     11                     12
                      A                      A                      A
 Frequencies --    622.5355               721.2949               752.7091
 Red. masses --      6.3520                 7.7749                 3.9779
 Frc consts  --      1.4504                 2.3833                 1.3279
 IR Inten    --      0.0098                22.7301                 0.0493

                     13                     14                     15
                      A                      A                      A
 Frequencies --    855.7825               870.3315               903.6282
 Red. masses --      1.3498                 8.0038                 1.4064
 Frc consts  --      0.5824                 3.5720                 0.6766
 IR Inten    --     23.1381                52.6459                 8.3576

                     16                     17                     18
                      A                      A                      A
 Frequencies --    990.1478              1008.1978              1125.1697
 Red. masses --      1.3784                 7.1604                 1.9300
 Frc consts  --      0.7962                 4.2883                 1.4396
 IR Inten    --      0.0111                 1.2978                21.4158

                     19                     20                     21
                      A                      A                      A
 Frequencies --   1128.0834              1246.0740              1299.9166
 Red. masses --      1.4952                 3.0857                 5.6093
 Frc consts  --      1.1211                 2.8229                 5.5846
 IR Inten    --      0.1965                11.9714                 2.7802

                     22                     23                     24
                      A                      A                      A
 Frequencies --   1323.8127              1416.5852              1502.1821
 Red. masses --      1.7448                 3.1822                 2.2894
 Frc consts  --      1.8016                 3.7624                 3.0438
 IR Inten    --      0.8195                18.3105                25.3629

                     25                     26                     27
                      A                      A                      A
 Frequencies --   1604.7978              1620.1328              2364.1493
 Red. masses --      6.5915                 6.5167                12.6859
 Frc consts  --     10.0017                10.0781                41.7755
 IR Inten    --    100.2940                79.9949                 1.4298

                     28                     29                     30
                      A                      A                      A
 Frequencies --   3186.0517              3233.8996              3239.2156
 Red. masses --      1.0908                 1.0945                 1.0939
 Frc consts  --      6.5236                 6.7439                 6.7624
 IR Inten    --     13.4125                 0.5109                 0.8486

 - Thermochemistry -
 -------------------
 Temperature   298.150 Kelvin.  Pressure   1.00000 Atm.
 Atom     1 has atomic number  7 and mass  14.00307

 Molecular mass:   137.99848 amu.
 Principal axes and moments of inertia in atomic units:
                           1         2         3
     Eigenvalues --   624.730472038.820002663.55045
           X            0.99990  -0.01423   0.00000
           Y            0.01423   0.99990   0.00002
           Z           -0.00000  -0.00002   1.00000
 This molecule is an asymmetric top.
 Rotational symmetry number  1.
 Warning -- assumption of classical behavior for rotation
           may cause significant error
 Rotational temperatures (Kelvin)      0.13864     0.04248     0.03252
 Rotational constants (GHZ):           2.88883     0.88519     0.67757
 Zero-point vibrational energy     204008.5 (Joules/Mol)
                                   48.75919 (Kcal/Mol)
 Warning -- explicit consideration of   9 degrees of freedom as
           vibrations may cause significant error
 Vibrational temperatures:    188.72   196.39   276.70   433.48   541.35
          (Kelvin)            591.98   690.22   697.97   833.13   895.69
                             1037.78  1082.98  1231.28  1252.21  1300.12
                             1424.60  1450.57  1618.87  1623.06  1792.82
                             1870.29  1904.67  2038.15  2161.30  2308.95
                             2331.01  3401.48  4584.02  4652.86  4660.51

 Zero-point correction=                           0.077703 (Hartree/Particle)
 Thermal correction to Energy=                    0.084844
 Thermal correction to Enthalpy=                  0.085788
 Thermal correction to Gibbs Free Energy=         0.045219
 Sum of electronic and zero-point Energies=           -800.069255
 Sum of electronic and thermal Energies=              -800.062113
 Sum of electronic and thermal Enthalpies=            -800.061169
 Sum of electronic and thermal Free Energies=         -800.101739

                     E (Thermal)             CV                S
                      KCal/Mol        Cal/Mol-Kelvin    Cal/Mol-Kelvin
 Total                   53.240             26.060             85.386
 Electronic               0.000              0.000              0.000
 Translational            0.889              2.981             40.678
 Rotational               0.889              2.981             29.607
 Vibrational             51.463             20.099             15.100
 Vibration     1          0.612              1.922              2.929
 Vibration     2          0.614              1.917              2.852
 Vibration     3          0.634              1.851              2.205
 Vibration     4          0.693              1.671              1.410
 Vibration     5          0.747              1.521              1.054
 Vibration     6          0.775              1.445              0.922
 Vibration     7          0.836              1.295              0.711
 Vibration     8          0.841              1.283              0.696
 Vibration     9          0.936              1.077              0.487

 Optimization completed.
    -- Stationary point found.
 Normal termination of Gaussian 16 at Tue Sep 17 09:55:52 2024.

 ----------------------------------------------------------------------
 #p M062X/def2tzvp geom=check guess=read scf(xqc,tight) integral(grid=u
 ltrafine) scrf(SMD, solvent=1,4-Dioxane) polar prop=efg volume
 ----------------------------------------------------------------------

 ---
 spe
 ---
 Structure from the checkpoint file:  "smiles_00057_conf_0.chk"
 Charge =  0 Multiplicity = 1

 SCF Done:  E(RM062X) =  -800.117088904     A.U. after   12 cycles

  Exact polarizability:     147.490      -7.629     111.816       0.003      -0.002      54.242
 Approx polarizability:     158.621      -8.262     130.071       0.008      -0.005      67.328

 Normal termination of Gaussian 16 at Tue Sep 17 10:03:21 2024.
 Gaussian 16:  ES64L-G16RevC.02  7-Dec-2021

 ----------------------------------------------------------------------
 #p M062X/def2tzvp geom=check guess=read scf(xqc,tight) integral(grid=u
 ltrafine) scrf(SMD, solvent=1,4-Dioxane) nmr=giao
 ----------------------------------------------------------------------

 ---
 spe
 ---
 Structure from the checkpoint file:  "smiles_00057_conf_0.chk"
 Charge =  0 Multiplicity = 1

                         Standard orientation:
 ---------------------------------------------------------------------
 Center     Atomic      Atomic             Coordinates (Angstroms)
 Number     Number       Type             X           Y           Z
 ---------------------------------------------------------------------
      1          7           0        3.556354   -1.270465    0.000363
      2          6           0        2.555457   -0.680965   -0.000314
      3          6           0        1.290602    0.012683   -0.000136
      4          6           0        0.108300   -0.738009   -0.000097
      5          6           0       -1.091797   -0.033534   -0.000001
      6         17           0       -2.606608   -0.897568    0.000048
      7          6           0       -1.076984    1.358311    0.000059
      8          6           0        0.166202    1.995154    0.000012
      9          7           0        1.336647    1.354492   -0.000076
     10          1           0        0.132836   -1.820286   -0.000154
     11          1           0       -1.998219    1.927937    0.000139
     12          1           0        0.216026    3.080974    0.000055
 ---------------------------------------------------------------------

 SCF Done:  E(RM062X) =  -800.117088904     A.U. after    1 cycles

      1  N    Isotropic =   -78.8359   Anisotropy =   478.4243

      2  C    Isotropic =    50.9069   Anisotropy =   371.0268

      3  C    Isotropic =    25.8591   Anisotropy =   164.0982

      4  C    Isotropic =    32.4880   Anisotropy =   187.2433

      5  C    Isotropic =     8.2635   Anisotropy =   182.6757

      6  Cl   Isotropic =   652.6981   Anisotropy =   487.0856

      7  C    Isotropic =    36.4025   Anisotropy =   187.6619

      8  C    Isotropic =     8.9902   Anisotropy =   207.1193

      9  N    Isotropic =  -145.1001   Anisotropy =   665.3573

     10  H    Isotropic =    23.2881   Anisotropy =    10.6068

     11  H    Isotropic =    23.5344   Anisotropy =     9.2930

     12  H    Isotropic =    22.2962   Anisotropy =     7.1115

 The electronic state is 1-A.
 Alpha  occ. eigenvalues -- -102.67280 -14.78656 -14.77404 -10.64712 -10.64134
 Alpha  occ. eigenvalues --  -10.60911 -10.59690 -10.59281 -10.58597  -9.83520
 Alpha  occ. eigenvalues --   -7.55724  -7.55204  -7.55176  -1.09661  -1.02801
 Alpha  occ. eigenvalues --   -1.00606  -0.90974  -0.90233  -0.77898  -0.74232
 Alpha  occ. eigenvalues --   -0.64744  -0.60605  -0.59466  -0.54205  -0.52765
 Alpha  occ. eigenvalues --   -0.50825  -0.48348  -0.46137  -0.46056  -0.42880
 Alpha  occ. eigenvalues --   -0.42315  -0.40336  -0.36773  -0.35346  -0.34474
 Alpha virt. eigenvalues --   -0.04871  -0.02450   0.03950   0.06433   0.08773
 Alpha virt. eigenvalues --    0.09502   0.10100   0.11760   0.12945   0.13654
 Alpha virt. eigenvalues --    0.16825   0.18843   0.19739   0.21694   0.22540

 Mulliken charges:
               1
     1  N   -0.022785
     2  C   -0.200854
     3  C    0.266741
     4  C   -0.196469
     5  C    0.091357
     6  Cl  -0.052488
     7  C   -0.142194
     8  C   -0.060517
     9  N   -0.248733
    10  H    0.203028
    11  H    0.186290
    12  H    0.176625
 Sum of Mulliken charges =  -0.00000

 Dipole moment (field-independent basis, Debye):
    X=             -5.1343    Y=              1.9057    Z=             -0.0008  Tot=              5.4766
 Quadrupole moment (field-independent basis, Debye-Ang):
   XX=            -76.4521   YY=            -53.3333   ZZ=            -58.8511
   XY=              1.3743   XZ=             -0.0032   YZ=              0.0017

 Normal termination of Gaussian 16 at Tue Sep 17 10:07:18 2024.
