 Gaussian 16, Revision C.02,

 ----------------------------------------------------------------------
 #p B3LYP/6-31G(d,p) EmpiricalDispersion=GD3BJ opt freq scf(xqc,tight)
 integral(grid=ultrafine)
 ----------------------------------------------------------------------

 ----------------------------------
 opt-freq conformers_unique/conf_ad
 ----------------------------------
 Symbolic Z-matrix:
 Charge =  0 Multiplicity = 1

 SCF Done:  E(RB3LYP) =  -3181.03401802     A.U. after   14 cycles
 SCF Done:  E(RB3LYP) =  -3181.03712425     A.U. after   12 cycles
 SCF Done:  E(RB3LYP) =  -3181.03751375     A.U. after   10 cycles
 SCF Done:  E(RB3LYP) =  -3181.03760947     A.U. after   10 cycles
 SCF Done:  E(RB3LYP) =  -3181.03761707     A.U. after    9 cycles
 SCF Done:  E(RB3LYP) =  -3181.03761739     A.U. after    7 cycles
 Optimization completed.
    -- Stationary point found.
 Normal termination of Gaussian 16 at Tue Sep 17 09:54:05 2024.

 ----------------------------------------------------------------------
 #P Geom=AllCheck Guess=TCheck SCRF=Check GenChk RB3LYP/6-31G(d,p) Freq
 ----------------------------------------------------------------------

 Structure from the checkpoint file:  "smiles_00023_conf_3.chk"
 ----------------------------------
 opt-freq conformers_unique/conf_ad
 ----------------------------------
 Charge =  0 Multiplicity = 1

 SCF Done:  E(RB3LYP) =  -3181.03761739     A.U. after    1 cycles

                      1                      2                      3
                      A                      A                      A
 Frequencies --     23.6600                68.1786                68.7805
 Red. masses --      6.1455                 2.8128                 6.2151
 Frc consts  --      0.0020                 0.0077                 0.0173
 IR Inten    --      0.6284                 0.7784                 0.5709

                      4                      5                      6
                      A                      A                      A
 Frequencies --     96.0630               124.5196               150.1620
 Red. masses --      7.8784                 6.5638                 3.8367
 Frc consts  --      0.0428                 0.0600                 0.0510
 IR Inten    --      1.4706                 0.1364                 0.0000

                      7                      8                      9
                      A                      A                      A
 Frequencies --    183.6329               249.5348               279.1541
 Red. masses --      4.4267                 5.6020                 4.8192
 Frc consts  --      0.0879                 0.2055                 0.2213
 IR Inten    --      0.0108                 0.9587                 0.0000

                     10                     11                     12
                      A                      A                      A
 Frequencies --    298.9852               354.8755               415.1135
 Red. masses --      8.6053                 7.4129                 5.1664
 Frc consts  --      0.4532                 0.5500                 0.5245
 IR Inten    --      2.0660                 1.7387                 5.3537

                     13                     14                     15
                      A                      A                      A
 Frequencies --    415.5466               453.0311               502.1278
 Red. masses --      4.0915                 3.4540                 6.7416
 Frc consts  --      0.4163                 0.4177                 1.0015
 IR Inten    --      0.0619                 2.9002                 3.1223

                     16                     17                     18
                      A                      A                      A
 Frequencies --    554.8742               655.1390               671.8406
 Red. masses --      5.9761                 3.2006                 5.7983
 Frc consts  --      1.0841                 0.8094                 1.5420
 IR Inten    --      0.6775                 0.5249                 5.8667

                     19                     20                     21
                      A                      A                      A
 Frequencies --    699.7442               710.8930               746.5246
 Red. masses --      3.1663                 4.5353                 4.5929
 Frc consts  --      0.9135                 1.3504                 1.5081
 IR Inten    --      5.5779                 5.3386                16.2983

                     22                     23                     24
                      A                      A                      A
 Frequencies --    762.7350               800.1392               809.1995
 Red. masses --      5.8282                 1.1146                 1.5210
 Frc consts  --      1.9977                 0.4205                 0.5868
 IR Inten    --     65.7396                 0.5421                19.6816

                     25                     26                     27
                      A                      A                      A
 Frequencies --    831.3131               912.6628               916.1069
 Red. masses --      1.7577                 2.5661                 3.6656
 Frc consts  --      0.7157                 1.2594                 1.8126
 IR Inten    --      8.2020                 0.0846                11.9042

                     28                     29                     30
                      A                      A                      A
 Frequencies --    927.3491               940.1863               984.3699
 Red. masses --      1.3659                 1.4286                10.2014
 Frc consts  --      0.6921                 0.7440                 5.8241
 IR Inten    --      0.8864                 7.9471                20.6587

                     31                     32                     33
                      A                      A                      A
 Frequencies --    991.8409               991.8846              1015.9641
 Red. masses --     10.9656                 1.3087                 6.1772
 Frc consts  --      6.3557                 0.7586                 3.7567
 IR Inten    --      3.9291                 0.1433                 2.1586

                     34                     35                     36
                      A                      A                      A
 Frequencies --   1049.5950              1067.9357              1074.5885
 Red. masses --      7.4613                 1.5156                 1.4045
 Frc consts  --      4.8429                 1.0184                 0.9556
 IR Inten    --     30.5499                42.8353                 5.8137

                     37                     38                     39
                      A                      A                      A
 Frequencies --   1090.1985              1096.8707              1119.7671
 Red. masses --      1.3259                 2.6363                 3.3171
 Frc consts  --      0.9285                 1.8688                 2.4506
 IR Inten    --      4.0231                12.5985                 7.3349

                     40                     41                     42
                      A                      A                      A
 Frequencies --   1124.6941              1129.6430              1199.4228
 Red. masses --      1.5584                 1.1089                 1.1147
 Frc consts  --      1.1615                 0.8337                 0.9449
 IR Inten    --      2.1364                 2.0036                 0.8983

                     43                     44                     45
                      A                      A                      A
 Frequencies --   1209.5013              1222.3650              1284.4252
 Red. masses --      1.3726                 2.1667                 3.3301
 Frc consts  --      1.1831                 1.9074                 3.2368
 IR Inten    --      0.6438                 2.2956                56.7340

                     46                     47                     48
                      A                      A                      A
 Frequencies --   1314.7694              1357.1548              1366.3628
 Red. masses --      1.5799                 3.6214                 1.9614
 Frc consts  --      1.6091                 3.9299                 2.1575
 IR Inten    --      0.6159                 1.8963                 3.2694

                     49                     50                     51
                      A                      A                      A
 Frequencies --   1398.0553              1474.9679              1479.0882
 Red. masses --      5.6113                 3.3775                 1.0871
 Frc consts  --      6.4619                 4.3292                 1.4012
 IR Inten    --      8.6903                41.1244                 2.4364

                     52                     53                     54
                      A                      A                      A
 Frequencies --   1506.6327              1516.7324              1599.7079
 Red. masses --      2.4139                 1.3347                 7.9956
 Frc consts  --      3.2284                 1.8091                12.0554
 IR Inten    --     39.8329                 0.5598                24.2216

                     55                     56                     57
                      A                      A                      A
 Frequencies --   1623.7935              1634.7687              1656.1994
 Red. masses --      7.8626                 7.7919                 6.1964
 Frc consts  --     12.2146                12.2689                10.0142
 IR Inten    --    199.4481                 8.9721                 6.3092

                     58                     59                     60
                      A                      A                      A
 Frequencies --   3154.0745              3156.6350              3199.3459
 Red. masses --      1.0502                 1.0588                 1.0881
 Frc consts  --      6.1556                 6.2158                 6.5620
 IR Inten    --     12.7050                 6.1418                 7.4135

                     61                     62                     63
                      A                      A                      A
 Frequencies --   3210.7404              3223.2811              3228.0480
 Red. masses --      1.0906                 1.0917                 1.0960
 Frc consts  --      6.6239                 6.6827                 6.7286
 IR Inten    --      0.7433                 1.3878                 3.7770

                     64                     65                     66
                      A                      A                      A
 Frequencies --   3236.7933              3238.2609              3251.5693
 Red. masses --      1.0925                 1.1207                 1.1165
 Frc consts  --      6.7439                 6.9238                 6.9550
 IR Inten    --      2.4117                 0.1391                10.5992

 - Thermochemistry -
 -------------------
 Temperature   298.150 Kelvin.  Pressure   1.00000 Atm.
 Atom     1 has atomic number 35 and mass  78.91834

 Molecular mass:   263.98982 amu.
 Principal axes and moments of inertia in atomic units:
                           1         2         3
     Eigenvalues --  1239.15638********************
           X            0.99999   0.00527  -0.00000
           Y           -0.00527   0.99999   0.00000
           Z            0.00000  -0.00000   1.00000
 This molecule is an asymmetric top.
 Rotational symmetry number  1.
 Warning -- assumption of classical behavior for rotation
           may cause significant error
 Rotational temperatures (Kelvin)      0.06990     0.00813     0.00737
 Rotational constants (GHZ):           1.45643     0.16945     0.15363
 Zero-point vibrational energy     473135.8 (Joules/Mol)
                                  113.08216 (Kcal/Mol)
 Warning -- explicit consideration of  16 degrees of freedom as
           vibrations may cause significant error
 Vibrational temperatures:     34.04    98.09    98.96   138.21   179.16
          (Kelvin)            216.05   264.21   359.02   401.64   430.17
                              510.59   597.26   597.88   651.81   722.45
                              798.34   942.60   966.63  1006.78  1022.82
                             1074.08  1097.41  1151.22  1164.26  1196.07
                             1313.12  1318.07  1334.25  1352.72  1416.29
                             1427.04  1427.10  1461.75  1510.13  1536.52
                             1546.09  1568.55  1578.15  1611.10  1618.18
                             1625.30  1725.70  1740.20  1758.71  1848.00
                             1891.66  1952.64  1965.89  2011.49  2122.15
                             2128.08  2167.71  2182.24  2301.62  2336.28
                             2352.07  2382.90  4538.01  4541.69  4603.15
                             4619.54  4637.58  4644.44  4657.02  4659.14
                             4678.28

 Zero-point correction=                           0.180208 (Hartree/Particle)
 Thermal correction to Energy=                    0.192724
 Thermal correction to Enthalpy=                  0.193668
 Thermal correction to Gibbs Free Energy=         0.138569
 Sum of electronic and zero-point Energies=          -3180.857410
 Sum of electronic and thermal Energies=             -3180.844894
 Sum of electronic and thermal Enthalpies=           -3180.843949
 Sum of electronic and thermal Free Energies=        -3180.899048

                     E (Thermal)             CV                S
                      KCal/Mol        Cal/Mol-Kelvin    Cal/Mol-Kelvin
 Total                  120.936             47.055            115.966
 Electronic               0.000              0.000              0.000
 Translational            0.889              2.981             42.612
 Rotational               0.889              2.981             33.405
 Vibrational            119.159             41.093             39.949
 Vibration     1          0.593              1.985              6.301
 Vibration     2          0.598              1.969              4.205
 Vibration     3          0.598              1.969              4.188
 Vibration     4          0.603              1.952              3.533
 Vibration     5          0.610              1.928              3.029
 Vibration     6          0.618              1.902              2.670
 Vibration     7          0.631              1.862              2.291
 Vibration     8          0.662              1.764              1.734
 Vibration     9          0.679              1.712              1.539
 Vibration    10          0.692              1.676              1.423
 Vibration    11          0.731              1.565              1.144
 Vibration    12          0.779              1.437              0.909
 Vibration    13          0.779              1.436              0.907
 Vibration    14          0.812              1.354              0.787
 Vibration    15          0.857              1.245              0.653
 Vibration    16          0.910              1.129              0.534

 Optimization completed.
    -- Stationary point found.
 Normal termination of Gaussian 16 at Tue Sep 17 09:56:14 2024.

 ----------------------------------------------------------------------
 #p M062X/def2tzvp geom=check guess=read scf(xqc,tight) integral(grid=u
 ltrafine) scrf(SMD, solvent=1,4-Dioxane) polar prop=efg volume
 ----------------------------------------------------------------------

 ---
 spe
 ---
 Structure from the checkpoint file:  "smiles_00023_conf_3.chk"
 Charge =  0 Multiplicity = 1

 SCF Done:  E(RM062X) =  -3183.45844495     A.U. after   12 cycles

  Exact polarizability:     275.492      -0.529     189.384      -0.001      -0.001     108.869
 Approx polarizability:     254.762      -2.527     227.786       0.001      -0.002     134.121

 Normal termination of Gaussian 16 at Tue Sep 17 10:57:01 2024.
 Gaussian 16:  ES64L-G16RevC.02  7-Dec-2021

 ----------------------------------------------------------------------
 #p M062X/def2tzvp geom=check guess=read scf(xqc,tight) integral(grid=u
 ltrafine) scrf(SMD, solvent=1,4-Dioxane) nmr=giao
 ----------------------------------------------------------------------

 ---
 spe
 ---
 Structure from the checkpoint file:  "smiles_00023_conf_3.chk"
 Charge =  0 Multiplicity = 1

                         Standard orientation:
 ---------------------------------------------------------------------
 Center     Atomic      Atomic             Coordinates (Angstroms)
 Number     Number       Type             X           Y           Z
 ---------------------------------------------------------------------
      1         35           0        4.106730   -0.568439    0.000051
      2          6           0        2.438691    0.359722    0.000022
      3          6           0        2.438392    1.755059    0.000031
      4          6           0        1.217348    2.428208    0.000003
      5          6           0        0.017249    1.721875   -0.000027
      6          6           0        0.035539    0.320618   -0.000034
      7          6           0       -1.199752   -0.449227   -0.000069
      8          7           0       -1.355346   -1.738414   -0.000055
      9          7           0       -2.731119   -1.979326    0.000065
     10          6           0       -3.308677   -0.815885   -0.000324
     11          6           0       -4.736274   -0.507222   -0.000399
     12          6           0       -5.251193    0.710604   -0.748494
     13          6           0       -5.251347    0.709592    0.749327
     14          8           0       -2.403088    0.210389   -0.000405
     15          6           0        1.257882   -0.369133   -0.000018
     16          1           0        3.375606    2.298469    0.000053
     17          1           0        1.205644    3.513274    0.000009
     18          1           0       -0.930962    2.246385   -0.000046
     19          1           0       -5.348914   -1.401027   -0.001019
     20          1           0       -6.194528    0.601443   -1.272580
     21          1           0       -4.514443    1.323233   -1.256845
     22          1           0       -6.194771    0.599696    1.273097
     23          1           0       -4.514674    1.321506    1.258652
     24          1           0        1.264318   -1.451813   -0.000033
 ---------------------------------------------------------------------

 SCF Done:  E(RM062X) =  -3183.45844495     A.U. after    1 cycles

      1  Br   Isotropic =  2061.0412   Anisotropy =  1320.0035

      2  C    Isotropic =    22.9410   Anisotropy =   148.0974

      3  C    Isotropic =    27.5764   Anisotropy =   190.4121

      4  C    Isotropic =    32.9959   Anisotropy =   213.8654

      5  C    Isotropic =    39.7853   Anisotropy =   210.6280

      6  C    Isotropic =    37.4529   Anisotropy =   192.1440

      7  C    Isotropic =     0.1605   Anisotropy =   105.8716

      8  N    Isotropic =  -119.8967   Anisotropy =   394.7171

      9  N    Isotropic =  -109.8784   Anisotropy =   366.3291

     10  C    Isotropic =    -6.6737   Anisotropy =   119.7114

     11  C    Isotropic =   177.2011   Anisotropy =    78.4074

     12  C    Isotropic =   176.9083   Anisotropy =    47.5351

     13  C    Isotropic =   176.8996   Anisotropy =    47.5509

     14  O    Isotropic =    -3.2742   Anisotropy =   239.0693

     15  C    Isotropic =    32.7643   Anisotropy =   185.4804

     16  H    Isotropic =    23.5119   Anisotropy =    10.3982

     17  H    Isotropic =    23.6185   Anisotropy =     6.4482

     18  H    Isotropic =    23.3103   Anisotropy =     9.4183

     19  H    Isotropic =    29.4127   Anisotropy =    14.4346

     20  H    Isotropic =    30.6286   Anisotropy =    15.4463

     21  H    Isotropic =    30.6733   Anisotropy =    12.2586

     22  H    Isotropic =    30.6291   Anisotropy =    15.4461

     23  H    Isotropic =    30.6753   Anisotropy =    12.2544

     24  H    Isotropic =    22.3932   Anisotropy =    12.9942

 The electronic state is 1-A.
 Alpha  occ. eigenvalues -- -485.37963 -63.36440 -57.18387 -57.18149 -57.18141
 Alpha  occ. eigenvalues --  -19.72367 -14.78483 -14.78083 -10.65028 -10.65003
 Alpha  occ. eigenvalues --  -10.61313 -10.58432 -10.57368 -10.56859 -10.56712
 Alpha  occ. eigenvalues --  -10.56593 -10.56398 -10.55759 -10.55716  -9.03084
 Alpha  occ. eigenvalues --   -6.85498  -6.84614  -6.84590  -2.88875  -2.88555
 Alpha  occ. eigenvalues --   -2.88528  -2.87704  -2.87704  -1.28746  -1.09578
 Alpha  occ. eigenvalues --   -1.00317  -0.98653  -0.94468  -0.90637  -0.86929
 Alpha  occ. eigenvalues --   -0.82928  -0.76903  -0.76037  -0.70194  -0.69970
 Alpha  occ. eigenvalues --   -0.69199  -0.66505  -0.62304  -0.59234  -0.58943
 Alpha  occ. eigenvalues --   -0.57141  -0.55609  -0.54650  -0.52835  -0.50976
 Alpha  occ. eigenvalues --   -0.49047  -0.47827  -0.46696  -0.44401  -0.44024
 Alpha  occ. eigenvalues --   -0.42200  -0.42015  -0.41491  -0.40757  -0.38576
 Alpha  occ. eigenvalues --   -0.37889  -0.36172  -0.35587  -0.35026  -0.31126
 Alpha  occ. eigenvalues --   -0.29325
 Alpha virt. eigenvalues --   -0.03314  -0.00042   0.03209   0.04408   0.06960
 Alpha virt. eigenvalues --    0.08285   0.08766   0.09860   0.10719   0.10828
 Alpha virt. eigenvalues --    0.11728   0.13102   0.13730   0.14849   0.16225

 Mulliken charges:
               1
     1  Br  -0.098503
     2  C    0.061479
     3  C   -0.160655
     4  C   -0.145436
     5  C   -0.215640
     6  C    0.054062
     7  C    0.302005
     8  N   -0.190676
     9  N   -0.206494
    10  C    0.289778
    11  C   -0.242901
    12  C   -0.260117
    13  C   -0.260161
    14  O   -0.280545
    15  C   -0.209444
    16  H    0.183478
    17  H    0.171921
    18  H    0.177680
    19  H    0.172115
    20  H    0.161397
    21  H    0.164017
    22  H    0.161396
    23  H    0.164024
    24  H    0.207218
 Sum of Mulliken charges =  -0.00000

 Dipole moment (field-independent basis, Debye):
    X=             -2.8798    Y=              5.3880    Z=             -0.0002  Tot=              6.1094
 Quadrupole moment (field-independent basis, Debye-Ang):
   XX=            -80.3262   YY=           -101.7526   ZZ=           -101.3211
   XY=             -4.2513   XZ=              0.0014   YZ=              0.0013

 Normal termination of Gaussian 16 at Tue Sep 17 11:19:01 2024.
