 Gaussian 16, Revision C.02,

 ----------------------------------------------------------------------
 #p B3LYP/6-31G(d,p) EmpiricalDispersion=GD3BJ opt freq scf(xqc,tight)
 integral(grid=ultrafine)
 ----------------------------------------------------------------------

 ----------------------------------
 opt-freq conformers_unique/conf_ac
 ----------------------------------
 Symbolic Z-matrix:
 Charge =  0 Multiplicity = 1

 SCF Done:  E(RB3LYP) =  -3181.03445828     A.U. after   15 cycles
 SCF Done:  E(RB3LYP) =  -3181.03757018     A.U. after   12 cycles
 SCF Done:  E(RB3LYP) =  -3181.03796115     A.U. after   11 cycles
 SCF Done:  E(RB3LYP) =  -3181.03805697     A.U. after   10 cycles
 SCF Done:  E(RB3LYP) =  -3181.03806457     A.U. after    9 cycles
 SCF Done:  E(RB3LYP) =  -3181.03806491     A.U. after    7 cycles
 Optimization completed.
    -- Stationary point found.
 Normal termination of Gaussian 16 at Tue Sep 17 09:54:06 2024.

 ----------------------------------------------------------------------
 #P Geom=AllCheck Guess=TCheck SCRF=Check GenChk RB3LYP/6-31G(d,p) Freq
 ----------------------------------------------------------------------

 Structure from the checkpoint file:  "smiles_00023_conf_2.chk"
 ----------------------------------
 opt-freq conformers_unique/conf_ac
 ----------------------------------
 Charge =  0 Multiplicity = 1

 SCF Done:  E(RB3LYP) =  -3181.03806491     A.U. after    1 cycles

                      1                      2                      3
                      A                      A                      A
 Frequencies --     30.0062                56.5136                71.3997
 Red. masses --      4.9096                 6.6901                 2.8531
 Frc consts  --      0.0026                 0.0126                 0.0086
 IR Inten    --      2.4929                 0.9994                 0.9744

                      4                      5                      6
                      A                      A                      A
 Frequencies --     88.5784               148.0087               155.1738
 Red. masses --      8.3653                 5.4328                 3.7720
 Frc consts  --      0.0387                 0.0701                 0.0535
 IR Inten    --      1.7097                 0.3693                 0.0875

                      7                      8                      9
                      A                      A                      A
 Frequencies --    181.6042               242.3217               279.3516
 Red. masses --      4.6229                 7.0735                 4.8473
 Frc consts  --      0.0898                 0.2447                 0.2229
 IR Inten    --      0.2808                 1.6096                 0.0013

                     10                     11                     12
                      A                      A                      A
 Frequencies --    300.8674               349.9958               414.5061
 Red. masses --      8.6989                 6.3425                 5.2869
 Frc consts  --      0.4639                 0.4578                 0.5352
 IR Inten    --      1.3266                 0.7454                 6.2680

                     13                     14                     15
                      A                      A                      A
 Frequencies --    418.1558               447.1873               500.3952
 Red. masses --      4.2427                 3.3255                 6.6982
 Frc consts  --      0.4371                 0.3918                 0.9882
 IR Inten    --      0.1790                 2.0041                 2.3806

                     16                     17                     18
                      A                      A                      A
 Frequencies --    556.0867               653.0539               678.5003
 Red. masses --      5.9531                 3.6904                 4.5133
 Frc consts  --      1.0846                 0.9273                 1.2242
 IR Inten    --      0.6446                 0.0636                 8.5679

                     19                     20                     21
                      A                      A                      A
 Frequencies --    699.8173               710.2449               747.8639
 Red. masses --      3.2863                 4.2838                 4.8166
 Frc consts  --      0.9483                 1.2732                 1.5872
 IR Inten    --      4.8441                 6.1376                15.3260

                     22                     23                     24
                      A                      A                      A
 Frequencies --    762.1106               799.9960               814.0865
 Red. masses --      6.8051                 1.0979                 1.4803
 Frc consts  --      2.3287                 0.4140                 0.5780
 IR Inten    --     51.9830                 1.4047                21.8353

                     25                     26                     27
                      A                      A                      A
 Frequencies --    831.2476               912.3037               916.4149
 Red. masses --      1.7580                 2.4990                 3.6632
 Frc consts  --      0.7157                 1.2255                 1.8126
 IR Inten    --      8.4162                 0.4913                16.3649

                     28                     29                     30
                      A                      A                      A
 Frequencies --    920.0854               940.3052               986.3126
 Red. masses --      1.4556                 1.3779                10.7929
 Frc consts  --      0.7260                 0.7178                 6.1861
 IR Inten    --      6.7743                 0.4308                 5.1382

                     31                     32                     33
                      A                      A                      A
 Frequencies --    992.1903               999.3746              1016.3994
 Red. masses --     11.0955                 1.3120                 6.1781
 Frc consts  --      6.4356                 0.7720                 3.7604
 IR Inten    --      7.9667                 0.4645                 8.5794

                     34                     35                     36
                      A                      A                      A
 Frequencies --   1049.8616              1067.8541              1074.6819
 Red. masses --      7.2719                 1.4922                 1.4377
 Frc consts  --      4.7224                 1.0025                 0.9783
 IR Inten    --     16.5908                38.1373                13.3324

                     37                     38                     39
                      A                      A                      A
 Frequencies --   1090.6992              1094.7737              1105.6589
 Red. masses --      1.3257                 3.0638                 2.0688
 Frc consts  --      0.9292                 2.1635                 1.4901
 IR Inten    --      4.0612                31.6179                 6.6724

                     40                     41                     42
                      A                      A                      A
 Frequencies --   1129.3843              1136.4665              1197.9802
 Red. masses --      1.1092                 1.9204                 1.1154
 Frc consts  --      0.8336                 1.4614                 0.9432
 IR Inten    --      2.0198                 9.8251                 0.3975

                     43                     44                     45
                      A                      A                      A
 Frequencies --   1209.5704              1222.3659              1281.9770
 Red. masses --      1.3724                 2.1682                 2.8443
 Frc consts  --      1.1830                 1.9087                 2.7542
 IR Inten    --      0.6461                 2.4229                41.3254

                     46                     47                     48
                      A                      A                      A
 Frequencies --   1318.8083              1359.2228              1369.0172
 Red. masses --      1.7521                 3.6412                 1.9066
 Frc consts  --      1.7955                 3.9635                 2.1053
 IR Inten    --      1.5157                 0.8507                 3.7096

                     49                     50                     51
                      A                      A                      A
 Frequencies --   1406.8770              1451.5180              1479.1568
 Red. masses --      6.3859                 2.9798                 1.0870
 Frc consts  --      7.4471                 3.6990                 1.4012
 IR Inten    --      5.1186                21.0535                 2.5006

                     52                     53                     54
                      A                      A                      A
 Frequencies --   1515.4152              1520.7225              1599.6173
 Red. masses --      1.4337                 2.1907                 7.9465
 Frc consts  --      1.9399                 2.9850                11.9801
 IR Inten    --     16.4527                30.6145                60.8124

                     55                     56                     57
                      A                      A                      A
 Frequencies --   1623.9661              1633.4803              1656.7808
 Red. masses --      8.0195                 8.3180                 6.0931
 Frc consts  --     12.4609                13.0766                 9.8541
 IR Inten    --    133.0725                33.4671                 6.4846

                     58                     59                     60
                      A                      A                      A
 Frequencies --   3154.2390              3156.7829              3201.0490
 Red. masses --      1.0502                 1.0588                 1.0884
 Frc consts  --      6.1563                 6.2164                 6.5711
 IR Inten    --     12.4415                 5.6859                 8.6856

                     61                     62                     63
                      A                      A                      A
 Frequencies --   3210.6523              3225.2607              3230.0078
 Red. masses --      1.0906                 1.0924                 1.0956
 Frc consts  --      6.6235                 6.6952                 6.7348
 IR Inten    --      0.8276                 0.6168                 2.4167

                     64                     65                     66
                      A                      A                      A
 Frequencies --   3236.0843              3238.5179              3251.8015
 Red. masses --      1.0919                 1.1207                 1.1165
 Frc consts  --      6.7372                 6.9250                 6.9562
 IR Inten    --      0.1317                 0.1703                10.2229

 - Thermochemistry -
 -------------------
 Temperature   298.150 Kelvin.  Pressure   1.00000 Atm.
 Atom     1 has atomic number 35 and mass  78.91834

 Molecular mass:   263.98982 amu.
 Principal axes and moments of inertia in atomic units:
                           1         2         3
     Eigenvalues --  2311.376878196.30754**********
           X            0.99833   0.05785  -0.00000
           Y           -0.05785   0.99833   0.00000
           Z            0.00000  -0.00000   1.00000
 This molecule is an asymmetric top.
 Rotational symmetry number  1.
 Warning -- assumption of classical behavior for rotation
           may cause significant error
 Rotational temperatures (Kelvin)      0.03747     0.01057     0.00836
 Rotational constants (GHZ):           0.78081     0.22019     0.17411
 Zero-point vibrational energy     473246.9 (Joules/Mol)
                                  113.10874 (Kcal/Mol)
 Warning -- explicit consideration of  16 degrees of freedom as
           vibrations may cause significant error
 Vibrational temperatures:     43.17    81.31   102.73   127.44   212.95
          (Kelvin)            223.26   261.29   348.65   401.92   432.88
                              503.57   596.38   601.63   643.40   719.96
                              800.08   939.60   976.21  1006.88  1021.88
                             1076.01  1096.51  1151.02  1171.29  1195.98
                             1312.60  1318.52  1323.80  1352.89  1419.08
                             1427.54  1437.88  1462.37  1510.52  1536.40
                             1546.23  1569.27  1575.14  1590.80  1624.93
                             1635.12  1723.63  1740.30  1758.71  1844.48
                             1897.47  1955.62  1969.71  2024.18  2088.41
                             2128.18  2180.34  2187.98  2301.49  2336.53
                             2350.21  2383.74  4538.25  4541.91  4605.60
                             4619.41  4640.43  4647.26  4656.00  4659.51
                             4678.62

 Zero-point correction=                           0.180250 (Hartree/Particle)
 Thermal correction to Energy=                    0.192752
 Thermal correction to Enthalpy=                  0.193696
 Thermal correction to Gibbs Free Energy=         0.138639
 Sum of electronic and zero-point Energies=          -3180.857815
 Sum of electronic and thermal Energies=             -3180.845313
 Sum of electronic and thermal Enthalpies=           -3180.844369
 Sum of electronic and thermal Free Energies=        -3180.899426

                     E (Thermal)             CV                S
                      KCal/Mol        Cal/Mol-Kelvin    Cal/Mol-Kelvin
 Total                  120.953             47.048            115.877
 Electronic               0.000              0.000              0.000
 Translational            0.889              2.981             42.612
 Rotational               0.889              2.981             33.640
 Vibrational            119.176             41.087             39.625
 Vibration     1          0.594              1.984              5.829
 Vibration     2          0.596              1.975              4.575
 Vibration     3          0.598              1.968              4.114
 Vibration     4          0.601              1.957              3.691
 Vibration     5          0.617              1.905              2.698
 Vibration     6          0.620              1.897              2.608
 Vibration     7          0.630              1.865              2.312
 Vibration     8          0.659              1.775              1.786
 Vibration     9          0.680              1.712              1.538
 Vibration    10          0.693              1.672              1.412
 Vibration    11          0.727              1.575              1.166
 Vibration    12          0.778              1.439              0.911
 Vibration    13          0.781              1.431              0.898
 Vibration    14          0.806              1.367              0.804
 Vibration    15          0.856              1.249              0.657
 Vibration    16          0.912              1.126              0.532

 Optimization completed.
    -- Stationary point found.
 Normal termination of Gaussian 16 at Tue Sep 17 09:55:58 2024.

 ----------------------------------------------------------------------
 #p M062X/def2tzvp geom=check guess=read scf(xqc,tight) integral(grid=u
 ltrafine) scrf(SMD, solvent=1,4-Dioxane) polar prop=efg volume
 ----------------------------------------------------------------------

 ---
 spe
 ---
 Structure from the checkpoint file:  "smiles_00023_conf_2.chk"
 Charge =  0 Multiplicity = 1

 SCF Done:  E(RM062X) =  -3183.45868823     A.U. after   12 cycles

  Exact polarizability:     252.059       2.959     210.712       0.003       0.002     108.665
 Approx polarizability:     246.394      -8.119     236.193       0.003       0.002     134.099

 Normal termination of Gaussian 16 at Tue Sep 17 10:57:41 2024.
 Gaussian 16:  ES64L-G16RevC.02  7-Dec-2021

 ----------------------------------------------------------------------
 #p M062X/def2tzvp geom=check guess=read scf(xqc,tight) integral(grid=u
 ltrafine) scrf(SMD, solvent=1,4-Dioxane) nmr=giao
 ----------------------------------------------------------------------

 ---
 spe
 ---
 Structure from the checkpoint file:  "smiles_00023_conf_2.chk"
 Charge =  0 Multiplicity = 1

                         Standard orientation:
 ---------------------------------------------------------------------
 Center     Atomic      Atomic             Coordinates (Angstroms)
 Number     Number       Type             X           Y           Z
 ---------------------------------------------------------------------
      1         35           0        3.326534   -1.413848   -0.000048
      2          6           0        2.271556    0.178278    0.000019
      3          6           0        2.907662    1.417334    0.000141
      4          6           0        2.126741    2.575382    0.000190
      5          6           0        0.738883    2.496323    0.000121
      6          6           0        0.114203    1.239726   -0.000007
      7          6           0       -1.339395    1.167425   -0.000081
      8          7           0       -2.202203    2.138027   -0.000105
      9          7           0       -3.469896    1.551288   -0.000264
     10          6           0       -3.280946    0.266023   -0.000107
     11          6           0       -4.276965   -0.802064   -0.000061
     12          6           0       -4.004745   -2.095632    0.749020
     13          6           0       -4.004536   -2.095899   -0.748589
     14          8           0       -1.951927   -0.060293   -0.000072
     15          6           0        0.885730    0.069752   -0.000057
     16          1           0        3.989575    1.473361    0.000198
     17          1           0        2.612358    3.545739    0.000288
     18          1           0        0.123752    3.388458    0.000163
     19          1           0       -5.290238   -0.418024   -0.000267
     20          1           0       -4.841966   -2.543932    1.272994
     21          1           0       -3.050323   -2.178021    1.257751
     22          1           0       -4.841612   -2.544386   -1.272634
     23          1           0       -3.049973   -2.178479   -1.257026
     24          1           0        0.410722   -0.902795   -0.000154
 ---------------------------------------------------------------------

 SCF Done:  E(RM062X) =  -3183.45868823     A.U. after    1 cycles

      1  Br   Isotropic =  2064.1292   Anisotropy =  1330.2919

      2  C    Isotropic =    24.0575   Anisotropy =   145.9866

      3  C    Isotropic =    27.6350   Anisotropy =   190.4620

      4  C    Isotropic =    31.9495   Anisotropy =   214.6834

      5  C    Isotropic =    37.0679   Anisotropy =   217.8146

      6  C    Isotropic =    37.3624   Anisotropy =   192.3197

      7  C    Isotropic =     0.1880   Anisotropy =   105.7527

      8  N    Isotropic =  -119.9685   Anisotropy =   395.2014

      9  N    Isotropic =  -110.0920   Anisotropy =   364.8360

     10  C    Isotropic =    -6.7797   Anisotropy =   119.9876

     11  C    Isotropic =   176.9076   Anisotropy =    78.7091

     12  C    Isotropic =   176.9800   Anisotropy =    47.3178

     13  C    Isotropic =   176.9810   Anisotropy =    47.3182

     14  O    Isotropic =    -3.3189   Anisotropy =   237.9670

     15  C    Isotropic =    35.2423   Anisotropy =   178.4257

     16  H    Isotropic =    23.5474   Anisotropy =    10.3671

     17  H    Isotropic =    23.5000   Anisotropy =     6.0549

     18  H    Isotropic =    22.5339   Anisotropy =     8.0972

     19  H    Isotropic =    29.3443   Anisotropy =    14.7026

     20  H    Isotropic =    30.6334   Anisotropy =    15.4479

     21  H    Isotropic =    30.6366   Anisotropy =    12.4597

     22  H    Isotropic =    30.6333   Anisotropy =    15.4478

     23  H    Isotropic =    30.6362   Anisotropy =    12.4610

     24  H    Isotropic =    23.1650   Anisotropy =    14.5505

 The electronic state is 1-A.
 Alpha  occ. eigenvalues -- -485.38195 -63.36671 -57.18618 -57.18379 -57.18373
 Alpha  occ. eigenvalues --  -19.72367 -14.78510 -14.78090 -10.65043 -10.65009
 Alpha  occ. eigenvalues --  -10.61432 -10.58444 -10.57335 -10.57160 -10.56729
 Alpha  occ. eigenvalues --  -10.56350 -10.56270 -10.55708 -10.55666  -9.03314
 Alpha  occ. eigenvalues --   -6.85726  -6.84843  -6.84823  -2.89103  -2.88783
 Alpha  occ. eigenvalues --   -2.88759  -2.87936  -2.87936  -1.28764  -1.09582
 Alpha  occ. eigenvalues --   -1.00334  -0.98646  -0.94530  -0.90538  -0.87191
 Alpha  occ. eigenvalues --   -0.82854  -0.76895  -0.76042  -0.70872  -0.70138
 Alpha  occ. eigenvalues --   -0.68027  -0.66758  -0.62349  -0.59252  -0.58954
 Alpha  occ. eigenvalues --   -0.57109  -0.55831  -0.54600  -0.52869  -0.50682
 Alpha  occ. eigenvalues --   -0.49206  -0.47870  -0.46738  -0.44354  -0.43889
 Alpha  occ. eigenvalues --   -0.42187  -0.42063  -0.41556  -0.40828  -0.38601
 Alpha  occ. eigenvalues --   -0.37865  -0.36202  -0.35814  -0.34966  -0.31388
 Alpha  occ. eigenvalues --   -0.29234
 Alpha virt. eigenvalues --   -0.03325  -0.00065   0.02958   0.04425   0.07153
 Alpha virt. eigenvalues --    0.08386   0.08730   0.09709   0.10718   0.10880
 Alpha virt. eigenvalues --    0.12071   0.13073   0.13557   0.14747   0.16228

 Mulliken charges:
               1
     1  Br  -0.102715
     2  C    0.059495
     3  C   -0.160606
     4  C   -0.142499
     5  C   -0.198089
     6  C    0.055135
     7  C    0.301012
     8  N   -0.194381
     9  N   -0.203226
    10  C    0.287426
    11  C   -0.244359
    12  C   -0.259809
    13  C   -0.259804
    14  O   -0.278508
    15  C   -0.225598
    16  H    0.184285
    17  H    0.173256
    18  H    0.190554
    19  H    0.171967
    20  H    0.161307
    21  H    0.164829
    22  H    0.161306
    23  H    0.164825
    24  H    0.194196
 Sum of Mulliken charges =  -0.00000

 Dipole moment (field-independent basis, Debye):
    X=              0.4959    Y=             -2.5238    Z=              0.0006  Tot=              2.5721
 Quadrupole moment (field-independent basis, Debye-Ang):
   XX=            -92.7853   YY=            -98.6831   ZZ=           -101.3183
   XY=             24.2096   XZ=             -0.0008   YZ=              0.0017

 Normal termination of Gaussian 16 at Tue Sep 17 11:20:06 2024.
