 Gaussian 16, Revision C.02,

 ----------------------------------------------------------------------
 #p B3LYP/6-31G(d,p) EmpiricalDispersion=GD3BJ opt freq scf(xqc,tight)
 integral(grid=ultrafine)
 ----------------------------------------------------------------------

 ----------------------------------
 opt-freq conformers_unique/conf_aa
 ----------------------------------
 Symbolic Z-matrix:
 Charge =  0 Multiplicity = 1

 SCF Done:  E(RB3LYP) =  -3031.27791935     A.U. after   15 cycles
 SCF Done:  E(RB3LYP) =  -3031.27881348     A.U. after   12 cycles
 SCF Done:  E(RB3LYP) =  -3031.27885169     A.U. after   10 cycles
 SCF Done:  E(RB3LYP) =  -3031.27885246     A.U. after    9 cycles
 SCF Done:  E(RB3LYP) =  -3031.27885632     A.U. after    9 cycles
 Optimization completed.
    -- Stationary point found.
 Normal termination of Gaussian 16 at Tue Sep 17 09:49:41 2024.

 ----------------------------------------------------------------------
 #P Geom=AllCheck Guess=TCheck SCRF=Check GenChk RB3LYP/6-31G(d,p) Freq
 ----------------------------------------------------------------------

 Structure from the checkpoint file:  "smiles_00103_conf_0.chk"
 ----------------------------------
 opt-freq conformers_unique/conf_aa
 ----------------------------------
 Charge =  0 Multiplicity = 1

 SCF Done:  E(RB3LYP) =  -3031.27885632     A.U. after    1 cycles

                      1                      2                      3
                      A                      A                      A
 Frequencies --     55.9777                72.1078               122.8909
 Red. masses --      4.5619                 5.1297                 5.4655
 Frc consts  --      0.0084                 0.0157                 0.0486
 IR Inten    --      0.5945                 0.5302                 0.5236

                      4                      5                      6
                      A                      A                      A
 Frequencies --    125.4635               153.4361               232.5048
 Red. masses --      1.2267                 3.2365                12.4408
 Frc consts  --      0.0114                 0.0449                 0.3962
 IR Inten    --      0.9681                 2.7753                 0.8459

                      7                      8                      9
                      A                      A                      A
 Frequencies --    256.9637               278.3792               338.5257
 Red. masses --      5.4076                 6.5827                 4.5014
 Frc consts  --      0.2104                 0.3006                 0.3039
 IR Inten    --      3.7181                 3.0576                18.5398

                     10                     11                     12
                      A                      A                      A
 Frequencies --    423.3861               448.0702               488.7701
 Red. masses --      2.9794                 5.9724                 3.3797
 Frc consts  --      0.3147                 0.7065                 0.4757
 IR Inten    --      0.0000                 3.2080                 3.4103

                     13                     14                     15
                      A                      A                      A
 Frequencies --    500.6429               644.4874               702.3047
 Red. masses --      7.3952                 7.0995                 4.3676
 Frc consts  --      1.0921                 1.7374                 1.2692
 IR Inten    --     14.1974                 1.2703                14.2462

                     16                     17                     18
                      A                      A                      A
 Frequencies --    719.8075               769.2759               838.5794
 Red. masses --      6.7095                 3.7484                 5.3053
 Frc consts  --      2.0482                 1.3069                 2.1981
 IR Inten    --      3.9618                27.4578                17.1907

                     19                     20                     21
                      A                      A                      A
 Frequencies --    854.9884               869.5237               989.1695
 Red. masses --      1.2862                 1.6333                 1.3471
 Frc consts  --      0.5540                 0.7276                 0.7766
 IR Inten    --      1.8730                18.3034                 0.0115

                     22                     23                     24
                      A                      A                      A
 Frequencies --   1001.7174              1003.6118              1033.5031
 Red. masses --      1.3434                 7.3552                 4.4261
 Frc consts  --      0.7942                 4.3649                 2.7854
 IR Inten    --      0.0297                 2.8974                67.8852

                     25                     26                     27
                      A                      A                      A
 Frequencies --   1092.3007              1130.9185              1147.9598
 Red. masses --      2.6274                 1.3856                 3.2626
 Frc consts  --      1.8470                 1.0441                 2.5332
 IR Inten    --     31.5216                32.0231                90.7981

                     28                     29                     30
                      A                      A                      A
 Frequencies --   1180.0652              1202.7736              1218.3014
 Red. masses --      1.2759                 1.1609                 1.6413
 Frc consts  --      1.0468                 0.9895                 1.4354
 IR Inten    --      0.8173                44.2101                47.9527

                     31                     32                     33
                      A                      A                      A
 Frequencies --   1316.5636              1326.8773              1354.6264
 Red. masses --      4.7371                 1.3059                 9.0667
 Frc consts  --      4.8378                 1.3547                 9.8026
 IR Inten    --    515.9424                 2.8652                20.9761

                     34                     35                     36
                      A                      A                      A
 Frequencies --   1439.8287              1481.8661              1495.2410
 Red. masses --      2.9929                 1.2156                 1.0465
 Frc consts  --      3.6557                 1.5728                 1.3786
 IR Inten    --     25.2075                28.4675                 6.2730

                     37                     38                     39
                      A                      A                      A
 Frequencies --   1510.2582              1529.4170              1625.1877
 Red. masses --      1.0518                 2.3954                 7.5176
 Frc consts  --      1.4135                 3.3012                11.6987
 IR Inten    --      8.0696                13.7605                 3.4159

                     40                     41                     42
                      A                      A                      A
 Frequencies --   1648.7725              1803.2827              3066.1429
 Red. masses --      5.7992                11.7246                 1.0297
 Frc consts  --      9.2884                22.4634                 5.7035
 IR Inten    --     94.0055               234.8622                38.6425

                     43                     44                     45
                      A                      A                      A
 Frequencies --   3143.7816              3176.6855              3217.3917
 Red. masses --      1.1069                 1.1072                 1.0885
 Frc consts  --      6.4458                 6.5831                 6.6386
 IR Inten    --     19.6358                15.8324                 0.0829

                     46                     47                     48
                      A                      A                      A
 Frequencies --   3219.7486              3230.1125              3235.4623
 Red. masses --      1.0891                 1.0953                 1.0948
 Frc consts  --      6.6523                 6.7334                 6.7523
 IR Inten    --      0.6913                 1.8377                 1.0691

 - Thermochemistry -
 -------------------
 Temperature   298.150 Kelvin.  Pressure   1.00000 Atm.
 Atom     1 has atomic number  6 and mass  12.00000

 Molecular mass:   213.96294 amu.
 Principal axes and moments of inertia in atomic units:
                           1         2         3
     Eigenvalues --   526.824566374.054746889.52479
           X            0.99995  -0.00976  -0.00014
           Y            0.00976   0.99995  -0.00013
           Z            0.00015   0.00013   1.00000
 This molecule is an asymmetric top.
 Rotational symmetry number  1.
 Warning -- assumption of classical behavior for rotation
           may cause significant error
 Rotational temperatures (Kelvin)      0.16441     0.01359     0.01257
 Rotational constants (GHZ):           3.42570     0.28314     0.26195
 Zero-point vibrational energy     351209.6 (Joules/Mol)
                                   83.94110 (Kcal/Mol)
 Warning -- explicit consideration of  13 degrees of freedom as
           vibrations may cause significant error
 Vibrational temperatures:     80.54   103.75   176.81   180.51   220.76
          (Kelvin)            334.52   369.71   400.53   487.06   609.16
                              644.67   703.23   720.31   927.27  1010.46
                             1035.64  1106.82  1206.53  1230.14  1251.05
                             1423.19  1441.25  1443.97  1486.98  1571.58
                             1627.14  1651.66  1697.85  1730.52  1752.86
                             1894.24  1909.08  1949.01  2071.59  2132.07
                             2151.32  2172.92  2200.49  2338.28  2372.22
                             2594.52  4411.50  4523.20  4570.54  4629.11
                             4632.50  4647.41  4655.11

 Zero-point correction=                           0.133769 (Hartree/Particle)
 Thermal correction to Energy=                    0.144007
 Thermal correction to Enthalpy=                  0.144951
 Thermal correction to Gibbs Free Energy=         0.096141
 Sum of electronic and zero-point Energies=          -3031.145088
 Sum of electronic and thermal Energies=             -3031.134849
 Sum of electronic and thermal Enthalpies=           -3031.133905
 Sum of electronic and thermal Free Energies=        -3031.182715

                     E (Thermal)             CV                S
                      KCal/Mol        Cal/Mol-Kelvin    Cal/Mol-Kelvin
 Total                   90.366             36.560            102.728
 Electronic               0.000              0.000              0.000
 Translational            0.889              2.981             41.985
 Rotational               0.889              2.981             31.515
 Vibrational             88.588             30.598             29.228
 Vibration     1          0.596              1.975              4.594
 Vibration     2          0.598              1.967              4.095
 Vibration     3          0.610              1.930              3.054
 Vibration     4          0.610              1.928              3.014
 Vibration     5          0.619              1.899              2.629
 Vibration     6          0.653              1.791              1.860
 Vibration     7          0.667              1.751              1.682
 Vibration     8          0.679              1.714              1.544
 Vibration     9          0.719              1.599              1.219
 Vibration    10          0.786              1.419              0.881
 Vibration    11          0.807              1.365              0.802
 Vibration    12          0.845              1.275              0.687
 Vibration    13          0.856              1.249              0.657

                           ! Non-Optimized Parameters !
 Normal termination of Gaussian 16 at Tue Sep 17 09:50:41 2024.

 ----------------------------------------------------------------------
 #p M062X/def2tzvp geom=check guess=read scf(xqc,tight) integral(grid=u
 ltrafine) scrf(SMD, solvent=1,4-Dioxane) polar prop=efg volume
 ----------------------------------------------------------------------

 ---
 spe
 ---
 Structure from the checkpoint file:  "smiles_00103_conf_0.chk"
 Charge =  0 Multiplicity = 1

 SCF Done:  E(RM062X) =  -3033.71847061     A.U. after   12 cycles

  Exact polarizability:     205.266       1.339     131.464       0.021       0.005      76.483
 Approx polarizability:     194.916       4.904     160.188       0.018       0.003      94.781

 Normal termination of Gaussian 16 at Tue Sep 17 10:21:22 2024.
 Gaussian 16:  ES64L-G16RevC.02  7-Dec-2021

 ----------------------------------------------------------------------
 #p M062X/def2tzvp geom=check guess=read scf(xqc,tight) integral(grid=u
 ltrafine) scrf(SMD, solvent=1,4-Dioxane) nmr=giao
 ----------------------------------------------------------------------

 ---
 spe
 ---
 Structure from the checkpoint file:  "smiles_00103_conf_0.chk"
 Charge =  0 Multiplicity = 1

                         Standard orientation:
 ---------------------------------------------------------------------
 Center     Atomic      Atomic             Coordinates (Angstroms)
 Number     Number       Type             X           Y           Z
 ---------------------------------------------------------------------
      1          6           0        4.912815   -0.750655    0.000136
      2          8           0        3.479722   -0.838047    0.000409
      3          6           0        2.834977    0.350396    0.000813
      4          8           0        3.411885    1.420212    0.000602
      5          6           0        1.356269    0.192039    0.000467
      6          6           0        0.575126    1.353729    0.000353
      7          6           0       -0.812773    1.269930    0.000047
      8          6           0       -1.411585    0.010464   -0.000152
      9         35           0       -3.314634   -0.115814   -0.000576
     10          6           0       -0.652403   -1.158872   -0.000048
     11          6           0        0.736086   -1.063258    0.000256
     12          1           0        5.264386   -0.221344    0.888800
     13          1           0        5.263946   -0.219183   -0.887398
     14          1           0        5.270003   -1.779853   -0.001168
     15          1           0        1.075008    2.315705    0.000520
     16          1           0       -1.425226    2.163524   -0.000037
     17          1           0       -1.142776   -2.124873   -0.000205
     18          1           0        1.342929   -1.960455    0.000344
 ---------------------------------------------------------------------

 SCF Done:  E(RM062X) =  -3033.71847061     A.U. after    1 cycles

      1  C    Isotropic =   130.6772   Anisotropy =    72.5175

      2  O    Isotropic =   137.7593   Anisotropy =   162.4354

      3  C    Isotropic =    -0.7343   Anisotropy =   104.7273

      4  O    Isotropic =  -128.6018   Anisotropy =   693.6114

      5  C    Isotropic =    34.2753   Anisotropy =   190.8582

      6  C    Isotropic =    29.7748   Anisotropy =   222.3031

      7  C    Isotropic =    31.1099   Anisotropy =   186.8631

      8  C    Isotropic =    16.3525   Anisotropy =   155.3668

      9  Br   Isotropic =  2052.3575   Anisotropy =  1279.2985

     10  C    Isotropic =    31.4808   Anisotropy =   185.1903

     11  C    Isotropic =    32.2936   Anisotropy =   217.0960

     12  H    Isotropic =    27.9547   Anisotropy =     8.2123

     13  H    Isotropic =    27.9517   Anisotropy =     8.2058

     14  H    Isotropic =    28.0262   Anisotropy =     7.6293

     15  H    Isotropic =    22.7006   Anisotropy =     8.6812

     16  H    Isotropic =    23.4979   Anisotropy =    10.6000

     17  H    Isotropic =    23.5325   Anisotropy =    10.7491

     18  H    Isotropic =    22.9565   Anisotropy =     9.4929

 The electronic state is 1-A.
 Alpha  occ. eigenvalues -- -485.38198 -63.36677 -57.18622 -57.18387 -57.18378
 Alpha  occ. eigenvalues --  -19.67730 -19.62173 -10.68130 -10.61585 -10.58969
 Alpha  occ. eigenvalues --  -10.56998 -10.56638 -10.56464 -10.56462 -10.56382
 Alpha  occ. eigenvalues --   -9.03323  -6.85730  -6.84860  -6.84827  -2.89107
 Alpha  occ. eigenvalues --   -2.88795  -2.88759  -2.87949  -2.87949  -1.23663
 Alpha  occ. eigenvalues --   -1.14344  -0.99208  -0.91628  -0.86628  -0.85220
 Alpha  occ. eigenvalues --   -0.80843  -0.71554  -0.70944  -0.65585  -0.62620
 Alpha  occ. eigenvalues --   -0.57358  -0.57067  -0.54758  -0.53676  -0.53355
 Alpha  occ. eigenvalues --   -0.50926  -0.48579  -0.48533  -0.45962  -0.43942
 Alpha  occ. eigenvalues --   -0.42813  -0.42291  -0.38493  -0.38255  -0.36656
 Alpha  occ. eigenvalues --   -0.35719  -0.32943  -0.30798
 Alpha virt. eigenvalues --   -0.03037   0.00233   0.03153   0.08100   0.08400
 Alpha virt. eigenvalues --    0.10217   0.11075   0.11555   0.12995   0.13792
 Alpha virt. eigenvalues --    0.15161   0.15835   0.16080   0.18512   0.18931

 Mulliken charges:
               1
     1  C   -0.268709
     2  O   -0.280299
     3  C    0.377023
     4  O   -0.369085
     5  C    0.044701
     6  C   -0.182267
     7  C   -0.150819
     8  C    0.050771
     9  Br  -0.098233
    10  C   -0.150470
    11  C   -0.191588
    12  H    0.160843
    13  H    0.160842
    14  H    0.155990
    15  H    0.188593
    16  H    0.185678
    17  H    0.185050
    18  H    0.181980
 Sum of Mulliken charges =  -0.00000

 Dipole moment (field-independent basis, Debye):
    X=              1.1048    Y=             -1.8736    Z=              0.0000  Tot=              2.1751
 Quadrupole moment (field-independent basis, Debye-Ang):
   XX=            -71.5624   YY=            -73.1766   ZZ=            -78.4386
   XY=             -9.5933   XZ=             -0.0011   YZ=             -0.0005

 Normal termination of Gaussian 16 at Tue Sep 17 10:32:17 2024.
