 Gaussian 16, Revision C.02,

 ----------------------------------------------------------------------
 #p B3LYP/6-31G(d,p) EmpiricalDispersion=GD3BJ opt freq scf(xqc,tight)
 integral(grid=ultrafine)
 ----------------------------------------------------------------------

 ----------------------------------
 opt-freq conformers_unique/conf_af
 ----------------------------------
 Symbolic Z-matrix:
 Charge =  0 Multiplicity = 1

 SCF Done:  E(RB3LYP) =  -3275.18726230     A.U. after   15 cycles
 SCF Done:  E(RB3LYP) =  -3275.18877951     A.U. after   13 cycles
 SCF Done:  E(RB3LYP) =  -3275.18889620     A.U. after   12 cycles
 SCF Done:  E(RB3LYP) =  -3275.18886290     A.U. after   13 cycles
 SCF Done:  E(RB3LYP) =  -3275.18909850     A.U. after   12 cycles
 SCF Done:  E(RB3LYP) =  -3275.18912898     A.U. after   11 cycles
 SCF Done:  E(RB3LYP) =  -3275.18913413     A.U. after   11 cycles
 SCF Done:  E(RB3LYP) =  -3275.18913448     A.U. after    8 cycles
 SCF Done:  E(RB3LYP) =  -3275.18913484     A.U. after    8 cycles
 SCF Done:  E(RB3LYP) =  -3275.18913491     A.U. after    7 cycles
 SCF Done:  E(RB3LYP) =  -3275.18913498     A.U. after    7 cycles
 SCF Done:  E(RB3LYP) =  -3275.18913502     A.U. after    7 cycles
 Optimization completed.
    -- Stationary point found.
 Normal termination of Gaussian 16 at Tue Sep 17 09:57:52 2024.

 ----------------------------------------------------------------------
 #P Geom=AllCheck Guess=TCheck SCRF=Check GenChk RB3LYP/6-31G(d,p) Freq
 ----------------------------------------------------------------------

 Structure from the checkpoint file:  "smiles_00085_conf_5.chk"
 ----------------------------------
 opt-freq conformers_unique/conf_af
 ----------------------------------
 Charge =  0 Multiplicity = 1

 SCF Done:  E(RB3LYP) =  -3275.18913502     A.U. after    1 cycles

                      1                      2                      3
                      A                      A                      A
 Frequencies --     28.6384                28.9004                75.9084
 Red. masses --      5.6374                 7.3396                 4.5153
 Frc consts  --      0.0027                 0.0036                 0.0153
 IR Inten    --      3.7625                 0.0064                 0.2045

                      4                      5                      6
                      A                      A                      A
 Frequencies --     94.5324               105.0597               111.7138
 Red. masses --      5.1221                 7.7989                 2.3705
 Frc consts  --      0.0270                 0.0507                 0.0174
 IR Inten    --      1.4029                 0.0342                 0.0000

                      7                      8                      9
                      A                      A                      A
 Frequencies --    127.1804               130.2816               168.8984
 Red. masses --      1.1320                 1.2748                 4.9472
 Frc consts  --      0.0108                 0.0127                 0.0832
 IR Inten    --      0.5921                 0.0000                 9.1338

                     10                     11                     12
                      A                      A                      A
 Frequencies --    198.1413               223.7693               240.2957
 Red. masses --      3.9602                 6.8721                 4.9928
 Frc consts  --      0.0916                 0.2027                 0.1699
 IR Inten    --      0.0000                 0.7247                 6.5922

                     13                     14                     15
                      A                      A                      A
 Frequencies --    266.8656               271.4796               341.2977
 Red. masses --      6.4973                14.2126                 4.6270
 Frc consts  --      0.2726                 0.6172                 0.3176
 IR Inten    --      1.3809                 0.4748                 0.0540

                     16                     17                     18
                      A                      A                      A
 Frequencies --    350.8650               396.8875               481.3779
 Red. masses --      6.0353                 6.9797                 9.9574
 Frc consts  --      0.4378                 0.6478                 1.3595
 IR Inten    --     28.2957                 0.0056                 2.5186

                     19                     20                     21
                      A                      A                      A
 Frequencies --    508.6097               534.1388               555.5631
 Red. masses --      6.1921                 6.6191                 6.1628
 Frc consts  --      0.9437                 1.1127                 1.1207
 IR Inten    --      0.0000                18.7396                 1.1317

                     22                     23                     24
                      A                      A                      A
 Frequencies --    704.1847               744.1620               746.2405
 Red. masses --      6.1977                 8.6239                 6.8217
 Frc consts  --      1.8107                 2.8138                 2.2382
 IR Inten    --     10.0686                89.8664                22.6519

                     25                     26                     27
                      A                      A                      A
 Frequencies --    787.3121               793.6946               843.2014
 Red. masses --      4.2504                 7.3947                 6.2946
 Frc consts  --      1.5523                 2.7446                 2.6368
 IR Inten    --     12.2588                 0.0000                 0.9152

                     28                     29                     30
                      A                      A                      A
 Frequencies --    889.6946               930.0417               949.2937
 Red. masses --      5.9520                 1.6021                 1.4131
 Frc consts  --      2.7758                 0.8165                 0.7503
 IR Inten    --      1.9338                13.1743                 0.0000

                     31                     32                     33
                      A                      A                      A
 Frequencies --   1006.0597              1012.6991              1051.8392
 Red. masses --      7.3707                 7.3336                 9.1456
 Frc consts  --      4.3955                 4.4313                 5.9616
 IR Inten    --     27.4388                 1.7589                84.2455

                     34                     35                     36
                      A                      A                      A
 Frequencies --   1125.9744              1180.6132              1180.6450
 Red. masses --      1.5630                 1.2762                 1.2763
 Frc consts  --      1.1675                 1.0481                 1.0482
 IR Inten    --      2.3914                 0.0003                 1.6932

                     37                     38                     39
                      A                      A                      A
 Frequencies --   1184.2810              1188.7039              1220.9500
 Red. masses --      3.2254                 1.6452                 1.5455
 Frc consts  --      2.6653                 1.3697                 1.3574
 IR Inten    --      0.0034                49.9835                39.7784

                     40                     41                     42
                      A                      A                      A
 Frequencies --   1223.9142              1265.0991              1313.2160
 Red. masses --      2.0944                 4.6610                 4.9506
 Frc consts  --      1.8484                 4.3952                 5.0301
 IR Inten    --      2.7156              1078.4814                53.3520

                     43                     44                     45
                      A                      A                      A
 Frequencies --   1324.1638              1425.9065              1469.3322
 Red. masses --     11.3771                 3.4845                 2.4656
 Frc consts  --     11.7534                 4.1742                 3.1363
 IR Inten    --      3.9368                 0.3163                 2.9398

                     46                     47                     48
                      A                      A                      A
 Frequencies --   1481.3323              1485.3405              1495.2651
 Red. masses --      1.2009                 1.5667                 1.0461
 Frc consts  --      1.5526                 2.0365                 1.3780
 IR Inten    --     15.1274                 3.1994                 0.0054

                     49                     50                     51
                      A                      A                      A
 Frequencies --   1495.2761              1509.8247              1509.9798
 Red. masses --      1.0461                 1.0504                 1.0515
 Frc consts  --      1.3780                 1.4108                 1.4126
 IR Inten    --     13.3342                11.6292                 6.5517

                     52                     53                     54
                      A                      A                      A
 Frequencies --   1601.8502              1618.2585              1836.7266
 Red. masses --      6.0012                 9.9884                12.0725
 Frc consts  --      9.0726                15.4114                23.9959
 IR Inten    --    158.6801                 3.6159                 1.9128

                     55                     56                     57
                      A                      A                      A
 Frequencies --   1844.8519              3067.7525              3067.9014
 Red. masses --     12.0522                 1.0296                 1.0297
 Frc consts  --     24.1680                 5.7091                 5.7099
 IR Inten    --    364.9349                62.8852                 6.2870

                     58                     59                     60
                      A                      A                      A
 Frequencies --   3146.3996              3146.4213              3179.6682
 Red. masses --      1.1071                 1.1071                 1.1074
 Frc consts  --      6.4574                 6.4575                 6.5964
 IR Inten    --      0.3908                34.5056                14.0615

                     61                     62                     63
                      A                      A                      A
 Frequencies --   3179.6943              3259.6627              3259.8634
 Red. masses --      1.1074                 1.0933                 1.0920
 Frc consts  --      6.5964                 6.8447                 6.8373
 IR Inten    --     14.0641                 1.1239                 3.6314

 - Thermochemistry -
 -------------------
 Temperature   298.150 Kelvin.  Pressure   1.00000 Atm.
 Atom     1 has atomic number  6 and mass  12.00000

 Molecular mass:   272.96367 amu.
 Principal axes and moments of inertia in atomic units:
                           1         2         3
     Eigenvalues --  4648.145485345.339109970.76673
           X            1.00000   0.00001   0.00000
           Y           -0.00001   1.00000   0.00000
           Z           -0.00000  -0.00000   1.00000
 This molecule is an asymmetric top.
 Rotational symmetry number  1.
 Warning -- assumption of classical behavior for rotation
           may cause significant error
 Rotational temperatures (Kelvin)      0.01863     0.01620     0.00869
 Rotational constants (GHZ):           0.38827     0.33763     0.18100
 Zero-point vibrational energy     430582.0 (Joules/Mol)
                                  102.91158 (Kcal/Mol)
 Warning -- explicit consideration of  21 degrees of freedom as
           vibrations may cause significant error
 Vibrational temperatures:     41.20    41.58   109.22   136.01   151.16
          (Kelvin)            160.73   182.98   187.45   243.01   285.08
                              321.95   345.73   383.96   390.60   491.05
                              504.82   571.03   692.60   731.78   768.51
                              799.33  1013.16  1070.68  1073.67  1132.77
                             1141.95  1213.18  1280.07  1338.12  1365.82
                             1447.50  1457.05  1513.36  1620.03  1698.64
                             1698.68  1703.92  1710.28  1756.67  1760.94
                             1820.20  1889.42  1905.18  2051.56  2114.04
                             2131.31  2137.07  2151.35  2151.37  2172.30
                             2172.52  2304.71  2328.31  2642.64  2654.33
                             4413.81  4414.03  4526.97  4527.00  4574.83
                             4574.87  4689.93  4690.22

 Zero-point correction=                           0.164000 (Hartree/Particle)
 Thermal correction to Energy=                    0.178916
 Thermal correction to Enthalpy=                  0.179860
 Thermal correction to Gibbs Free Energy=         0.118858
 Sum of electronic and zero-point Energies=          -3275.025135
 Sum of electronic and thermal Energies=             -3275.010219
 Sum of electronic and thermal Enthalpies=           -3275.009275
 Sum of electronic and thermal Free Energies=        -3275.070277

                     E (Thermal)             CV                S
                      KCal/Mol        Cal/Mol-Kelvin    Cal/Mol-Kelvin
 Total                  112.272             51.241            128.391
 Electronic               0.000              0.000              0.000
 Translational            0.889              2.981             42.711
 Rotational               0.889              2.981             33.871
 Vibrational            110.494             45.279             51.809
 Vibration     1          0.593              1.984              5.922
 Vibration     2          0.593              1.984              5.904
 Vibration     3          0.599              1.965              3.994
 Vibration     4          0.603              1.953              3.564
 Vibration     5          0.605              1.945              3.358
 Vibration     6          0.607              1.940              3.239
 Vibration     7          0.611              1.926              2.988
 Vibration     8          0.612              1.923              2.942
 Vibration     9          0.625              1.881              2.448
 Vibration    10          0.637              1.842              2.150
 Vibration    11          0.649              1.805              1.928
 Vibration    12          0.657              1.779              1.801
 Vibration    13          0.672              1.734              1.616
 Vibration    14          0.675              1.726              1.587
 Vibration    15          0.721              1.593              1.206
 Vibration    16          0.728              1.573              1.162
 Vibration    17          0.763              1.477              0.974
 Vibration    18          0.838              1.291              0.706
 Vibration    19          0.864              1.231              0.637
 Vibration    20          0.889              1.175              0.578
 Vibration    21          0.911              1.128              0.533

 Optimization completed.
    -- Stationary point found.
 Normal termination of Gaussian 16 at Tue Sep 17 09:59:22 2024.

 ----------------------------------------------------------------------
 #p M062X/def2tzvp geom=check guess=read scf(xqc,tight) integral(grid=u
 ltrafine) scrf(SMD, solvent=1,4-Dioxane) polar prop=efg volume
 ----------------------------------------------------------------------

 ---
 spe
 ---
 Structure from the checkpoint file:  "smiles_00085_conf_5.chk"
 Charge =  0 Multiplicity = 1

 SCF Done:  E(RM062X) =  -3277.63555552     A.U. after   12 cycles

  Exact polarizability:     202.310      -0.000     198.722      -0.001       0.000      92.899
 Approx polarizability:     194.861      -0.001     224.798      -0.001       0.000     115.789

 Normal termination of Gaussian 16 at Tue Sep 17 10:47:20 2024.
 Gaussian 16:  ES64L-G16RevC.02  7-Dec-2021

 ----------------------------------------------------------------------
 #p M062X/def2tzvp geom=check guess=read scf(xqc,tight) integral(grid=u
 ltrafine) scrf(SMD, solvent=1,4-Dioxane) nmr=giao
 ----------------------------------------------------------------------

 ---
 spe
 ---
 Structure from the checkpoint file:  "smiles_00085_conf_5.chk"
 Charge =  0 Multiplicity = 1

                         Standard orientation:
 ---------------------------------------------------------------------
 Center     Atomic      Atomic             Coordinates (Angstroms)
 Number     Number       Type             X           Y           Z
 ---------------------------------------------------------------------
      1          6           0       -4.751610   -1.559742   -0.000072
      2          8           0       -3.501051   -0.852199    0.000019
      3          6           0       -2.401891   -1.642226    0.000017
      4          8           0       -2.437542   -2.848565    0.000009
      5          6           0       -1.142555   -0.813680    0.000029
      6          6           0       -1.204023    0.586116    0.000049
      7          6           0       -0.000021    1.279600    0.000031
      8         35           0       -0.000047    3.181723   -0.000011
      9          6           0        1.204002    0.586149    0.000026
     10          6           0        1.142579   -0.813647    0.000021
     11          6           0        2.401937   -1.642165    0.000013
     12          8           0        2.437621   -2.848501    0.000023
     13          8           0        3.501088   -0.852123   -0.000023
     14          6           0        4.751656   -1.559647   -0.000044
     15          7           0        0.000019   -1.503782    0.000012
     16          1           0       -5.524049   -0.791827    0.000159
     17          1           0       -4.832576   -2.190095   -0.888504
     18          1           0       -4.832469   -2.190546    0.888045
     19          1           0       -2.155569    1.098641    0.000091
     20          1           0        2.155532    1.098704    0.000039
     21          1           0        4.832274   -2.190818    0.887831
     22          1           0        5.524088   -0.791725    0.000701
     23          1           0        4.832885   -2.189632   -0.888717
 ---------------------------------------------------------------------

 SCF Done:  E(RM062X) =  -3277.63555552     A.U. after    1 cycles

      1  C    Isotropic =   130.2782   Anisotropy =    73.0352

      2  O    Isotropic =   132.3338   Anisotropy =   173.6811

      3  C    Isotropic =     4.6361   Anisotropy =    92.3176

      4  O    Isotropic =  -155.3120   Anisotropy =   743.7160

      5  C    Isotropic =    12.5550   Anisotropy =   172.1041

      6  C    Isotropic =    31.2072   Anisotropy =   190.6084

      7  C    Isotropic =     8.5739   Anisotropy =   176.1863

      8  Br   Isotropic =  2019.6692   Anisotropy =  1308.0610

      9  C    Isotropic =    31.2074   Anisotropy =   190.6083

     10  C    Isotropic =    12.5547   Anisotropy =   172.1041

     11  C    Isotropic =     4.6363   Anisotropy =    92.3167

     12  O    Isotropic =  -155.3129   Anisotropy =   743.7165

     13  O    Isotropic =   132.3334   Anisotropy =   173.6832

     14  C    Isotropic =   130.2782   Anisotropy =    73.0349

     15  N    Isotropic =  -157.8579   Anisotropy =   683.4196

     16  H    Isotropic =    27.9637   Anisotropy =     7.5030

     17  H    Isotropic =    27.8677   Anisotropy =     8.2040

     18  H    Isotropic =    27.8669   Anisotropy =     8.2025

     19  H    Isotropic =    22.6308   Anisotropy =    14.9042

     20  H    Isotropic =    22.6309   Anisotropy =    14.9041

     21  H    Isotropic =    27.8662   Anisotropy =     8.2011

     22  H    Isotropic =    27.9637   Anisotropy =     7.5030

     23  H    Isotropic =    27.8683   Anisotropy =     8.2054

 The electronic state is 1-A.
 Alpha  occ. eigenvalues -- -485.39587 -63.38056 -57.20007 -57.19765 -57.19752
 Alpha  occ. eigenvalues --  -19.68250 -19.68250 -19.62768 -19.62768 -14.78033
 Alpha  occ. eigenvalues --  -10.68579 -10.68579 -10.63684 -10.61700 -10.61698
 Alpha  occ. eigenvalues --  -10.59244 -10.59244 -10.58608 -10.58606  -9.04697
 Alpha  occ. eigenvalues --   -6.87125  -6.86225  -6.86183  -2.90502  -2.90181
 Alpha  occ. eigenvalues --   -2.90138  -2.89300  -2.89299  -1.24249  -1.24203
 Alpha  occ. eigenvalues --   -1.15114  -1.15026  -1.08790  -0.96593  -0.91736
 Alpha  occ. eigenvalues --   -0.87199  -0.84321  -0.82101  -0.76740  -0.73870
 Alpha  occ. eigenvalues --   -0.66521  -0.66125  -0.63519  -0.60131  -0.59032
 Alpha  occ. eigenvalues --   -0.58863  -0.57846  -0.57419  -0.56203  -0.55407
 Alpha  occ. eigenvalues --   -0.51690  -0.51072  -0.49658  -0.47859  -0.47829
 Alpha  occ. eigenvalues --   -0.47750  -0.46491  -0.44268  -0.44024  -0.41858
 Alpha  occ. eigenvalues --   -0.38620  -0.38609  -0.37613  -0.37550  -0.36244
 Alpha  occ. eigenvalues --   -0.35601  -0.34653  -0.33866
 Alpha virt. eigenvalues --   -0.04785  -0.04264   0.01914   0.04841   0.07828
 Alpha virt. eigenvalues --    0.08261   0.10272   0.10394   0.11038   0.11326
 Alpha virt. eigenvalues --    0.12098   0.12944   0.14951   0.15193   0.15640

 Mulliken charges:
               1
     1  C   -0.272403
     2  O   -0.275312
     3  C    0.323071
     4  O   -0.310964
     5  C    0.088213
     6  C   -0.130760
     7  C    0.028268
     8  Br  -0.060881
     9  C   -0.130761
    10  C    0.088213
    11  C    0.323071
    12  O   -0.310963
    13  O   -0.275314
    14  C   -0.272403
    15  N   -0.187461
    16  H    0.157797
    17  H    0.164008
    18  H    0.164009
    19  H    0.202379
    20  H    0.202379
    21  H    0.164009
    22  H    0.157797
    23  H    0.164008
 Sum of Mulliken charges =  -0.00000

 Dipole moment (field-independent basis, Debye):
    X=             -0.0001    Y=              4.5433    Z=             -0.0001  Tot=              4.5433
 Quadrupole moment (field-independent basis, Debye-Ang):
   XX=            -65.5667   YY=           -118.7254   ZZ=            -97.3418
   XY=              0.0006   XZ=              0.0003   YZ=              0.0003

 Normal termination of Gaussian 16 at Tue Sep 17 11:05:20 2024.
