 Gaussian 16, Revision C.02,

 ----------------------------------------------------------------------
 #p B3LYP/6-31G(d,p) EmpiricalDispersion=GD3BJ opt freq scf(xqc,tight)
 integral(grid=ultrafine)
 ----------------------------------------------------------------------

 ----------------------------------
 opt-freq conformers_unique/conf_ae
 ----------------------------------
 Symbolic Z-matrix:
 Charge =  0 Multiplicity = 1

 SCF Done:  E(RB3LYP) =  -3275.18614762     A.U. after   15 cycles
 SCF Done:  E(RB3LYP) =  -3275.18812512     A.U. after   12 cycles
 SCF Done:  E(RB3LYP) =  -3275.18864019     A.U. after   12 cycles
 SCF Done:  E(RB3LYP) =  -3275.18853167     A.U. after   13 cycles
 SCF Done:  E(RB3LYP) =  -3275.18905368     A.U. after   13 cycles
 SCF Done:  E(RB3LYP) =  -3275.18912481     A.U. after   12 cycles
 SCF Done:  E(RB3LYP) =  -3275.18913406     A.U. after   10 cycles
 SCF Done:  E(RB3LYP) =  -3275.18913441     A.U. after    8 cycles
 SCF Done:  E(RB3LYP) =  -3275.18913474     A.U. after    8 cycles
 SCF Done:  E(RB3LYP) =  -3275.18913490     A.U. after    8 cycles
 SCF Done:  E(RB3LYP) =  -3275.18913497     A.U. after    6 cycles
 SCF Done:  E(RB3LYP) =  -3275.18913503     A.U. after    6 cycles
 Optimization completed.
    -- Stationary point found.
 Normal termination of Gaussian 16 at Tue Sep 17 09:59:24 2024.

 ----------------------------------------------------------------------
 #P Geom=AllCheck Guess=TCheck SCRF=Check GenChk RB3LYP/6-31G(d,p) Freq
 ----------------------------------------------------------------------

 Structure from the checkpoint file:  "smiles_00085_conf_4.chk"
 ----------------------------------
 opt-freq conformers_unique/conf_ae
 ----------------------------------
 Charge =  0 Multiplicity = 1

 SCF Done:  E(RB3LYP) =  -3275.18913503     A.U. after    1 cycles

                      1                      2                      3
                      A                      A                      A
 Frequencies --     28.4609                28.6498                75.8952
 Red. masses --      5.6377                 7.3385                 4.5116
 Frc consts  --      0.0027                 0.0035                 0.0153
 IR Inten    --      3.7653                 0.0000                 0.2074

                      4                      5                      6
                      A                      A                      A
 Frequencies --     94.5179               105.0534               111.7074
 Red. masses --      5.1225                 7.7991                 2.3658
 Frc consts  --      0.0270                 0.0507                 0.0174
 IR Inten    --      1.4030                 0.0343                 0.0000

                      7                      8                      9
                      A                      A                      A
 Frequencies --    127.0978               130.2082               168.9055
 Red. masses --      1.1321                 1.2763                 4.9494
 Frc consts  --      0.0108                 0.0127                 0.0832
 IR Inten    --      0.5907                 0.0000                 9.1355

                     10                     11                     12
                      A                      A                      A
 Frequencies --    198.1422               223.7623               240.2970
 Red. masses --      3.9601                 6.8706                 4.9933
 Frc consts  --      0.0916                 0.2027                 0.1699
 IR Inten    --      0.0000                 0.7261                 6.5889

                     13                     14                     15
                      A                      A                      A
 Frequencies --    266.8719               271.4751               341.2935
 Red. masses --      6.4971                14.2142                 4.6266
 Frc consts  --      0.2726                 0.6172                 0.3175
 IR Inten    --      1.3821                 0.4737                 0.0539

                     16                     17                     18
                      A                      A                      A
 Frequencies --    350.8569               396.8708               481.3729
 Red. masses --      6.0340                 6.9801                 9.9574
 Frc consts  --      0.4376                 0.6478                 1.3594
 IR Inten    --     28.3042                 0.0055                 2.5181

                     19                     20                     21
                      A                      A                      A
 Frequencies --    508.6008               534.1351               555.5533
 Red. masses --      6.1921                 6.6191                 6.1628
 Frc consts  --      0.9437                 1.1126                 1.1207
 IR Inten    --      0.0000                18.7406                 1.1323

                     22                     23                     24
                      A                      A                      A
 Frequencies --    704.1767               744.1636               746.2441
 Red. masses --      6.1979                 8.6240                 6.8216
 Frc consts  --      1.8107                 2.8138                 2.2382
 IR Inten    --     10.0700                89.8622                22.6565

                     25                     26                     27
                      A                      A                      A
 Frequencies --    787.3001               793.6820               843.2119
 Red. masses --      4.2504                 7.3950                 6.2938
 Frc consts  --      1.5523                 2.7446                 2.6365
 IR Inten    --     12.2567                 0.0000                 0.9136

                     28                     29                     30
                      A                      A                      A
 Frequencies --    889.6996               930.0445               949.2964
 Red. masses --      5.9513                 1.6021                 1.4131
 Frc consts  --      2.7755                 0.8165                 0.7503
 IR Inten    --      1.9257                13.1738                 0.0000

                     31                     32                     33
                      A                      A                      A
 Frequencies --   1005.9914              1012.6979              1051.7498
 Red. masses --      7.3761                 7.3304                 9.1471
 Frc consts  --      4.3981                 4.4293                 5.9615
 IR Inten    --     27.5006                 1.7073                84.3204

                     34                     35                     36
                      A                      A                      A
 Frequencies --   1125.9688              1180.5901              1180.6219
 Red. masses --      1.5631                 1.2762                 1.2763
 Frc consts  --      1.1676                 1.0480                 1.0481
 IR Inten    --      2.3900                 0.0000                 1.6935

                     37                     38                     39
                      A                      A                      A
 Frequencies --   1184.2568              1188.7068              1220.9415
 Red. masses --      3.2248                 1.6451                 1.5456
 Frc consts  --      2.6646                 1.3696                 1.3575
 IR Inten    --      0.0034                49.9650                39.7932

                     40                     41                     42
                      A                      A                      A
 Frequencies --   1223.9007              1265.0859              1313.2097
 Red. masses --      2.0945                 4.6603                 4.9505
 Frc consts  --      1.8485                 4.3944                 5.0300
 IR Inten    --      2.7170              1078.3960                53.3638

                     43                     44                     45
                      A                      A                      A
 Frequencies --   1324.1656              1425.9160              1469.3140
 Red. masses --     11.3764                 3.4847                 2.4639
 Frc consts  --     11.7528                 4.1745                 3.1340
 IR Inten    --      3.9316                 0.3169                 2.9416

                     46                     47                     48
                      A                      A                      A
 Frequencies --   1481.3026              1485.3153              1495.2519
 Red. masses --      1.2009                 1.5674                 1.0461
 Frc consts  --      1.5526                 2.0374                 1.3780
 IR Inten    --     15.1401                 3.1991                 0.0007

                     49                     50                     51
                      A                      A                      A
 Frequencies --   1495.2629              1509.8097              1509.9646
 Red. masses --      1.0461                 1.0504                 1.0515
 Frc consts  --      1.3780                 1.4108                 1.4125
 IR Inten    --     13.3389                11.6319                 6.5496

                     52                     53                     54
                      A                      A                      A
 Frequencies --   1601.8667              1618.2590              1836.8342
 Red. masses --      6.0011                 9.9881                12.0734
 Frc consts  --      9.0726                15.4109                24.0004
 IR Inten    --    158.6558                 3.6173                 1.9145

                     55                     56                     57
                      A                      A                      A
 Frequencies --   1844.9590              3067.8019              3067.9508
 Red. masses --     12.0530                 1.0296                 1.0297
 Frc consts  --     24.1724                 5.7093                 5.7101
 IR Inten    --    364.9439                62.8674                 6.2842

                     58                     59                     60
                      A                      A                      A
 Frequencies --   3146.4643              3146.4856              3179.7483
 Red. masses --      1.1071                 1.1071                 1.1074
 Frc consts  --      6.4577                 6.4578                 6.5967
 IR Inten    --      0.0090                34.8768                14.0649

                     61                     62                     63
                      A                      A                      A
 Frequencies --   3179.7743              3259.6689              3259.8697
 Red. masses --      1.1074                 1.0933                 1.0920
 Frc consts  --      6.5968                 6.8447                 6.8373
 IR Inten    --     14.0570                 1.1225                 3.6278

 - Thermochemistry -
 -------------------
 Temperature   298.150 Kelvin.  Pressure   1.00000 Atm.
 Atom     1 has atomic number  6 and mass  12.00000

 Molecular mass:   272.96367 amu.
 Principal axes and moments of inertia in atomic units:
                           1         2         3
     Eigenvalues --  4648.301365345.361089970.94433
           X            1.00000  -0.00000  -0.00000
           Y            0.00000   1.00000   0.00000
           Z            0.00000  -0.00000   1.00000
 This molecule is an asymmetric top.
 Rotational symmetry number  1.
 Warning -- assumption of classical behavior for rotation
           may cause significant error
 Rotational temperatures (Kelvin)      0.01863     0.01620     0.00869
 Rotational constants (GHZ):           0.38826     0.33763     0.18100
 Zero-point vibrational energy     430579.4 (Joules/Mol)
                                  102.91095 (Kcal/Mol)
 Warning -- explicit consideration of  21 degrees of freedom as
           vibrations may cause significant error
 Vibrational temperatures:     40.95    41.22   109.20   135.99   151.15
          (Kelvin)            160.72   182.87   187.34   243.02   285.08
                              321.94   345.73   383.97   390.59   491.05
                              504.80   571.01   692.59   731.76   768.50
                              799.32  1013.15  1070.69  1073.68  1132.75
                             1141.93  1213.19  1280.08  1338.13  1365.83
                             1447.40  1457.05  1513.23  1620.02  1698.61
                             1698.65  1703.88  1710.28  1756.66  1760.92
                             1820.18  1889.42  1905.18  2051.58  2114.02
                             2131.26  2137.04  2151.33  2151.35  2172.28
                             2172.50  2304.73  2328.31  2642.79  2654.48
                             4413.88  4414.10  4527.06  4527.09  4574.95
                             4574.99  4689.94  4690.23

 Zero-point correction=                           0.163999 (Hartree/Particle)
 Thermal correction to Energy=                    0.178917
 Thermal correction to Enthalpy=                  0.179861
 Thermal correction to Gibbs Free Energy=         0.118842
 Sum of electronic and zero-point Energies=          -3275.025136
 Sum of electronic and thermal Energies=             -3275.010218
 Sum of electronic and thermal Enthalpies=           -3275.009274
 Sum of electronic and thermal Free Energies=        -3275.070293

                     E (Thermal)             CV                S
                      KCal/Mol        Cal/Mol-Kelvin    Cal/Mol-Kelvin
 Total                  112.272             51.242            128.424
 Electronic               0.000              0.000              0.000
 Translational            0.889              2.981             42.711
 Rotational               0.889              2.981             33.871
 Vibrational            110.494             45.280             51.843
 Vibration     1          0.593              1.984              5.934
 Vibration     2          0.593              1.984              5.921
 Vibration     3          0.599              1.965              3.994
 Vibration     4          0.603              1.953              3.564
 Vibration     5          0.605              1.945              3.358
 Vibration     6          0.607              1.940              3.239
 Vibration     7          0.611              1.926              2.990
 Vibration     8          0.612              1.923              2.943
 Vibration     9          0.625              1.881              2.448
 Vibration    10          0.637              1.842              2.150
 Vibration    11          0.649              1.805              1.928
 Vibration    12          0.657              1.779              1.801
 Vibration    13          0.672              1.734              1.616
 Vibration    14          0.675              1.726              1.587
 Vibration    15          0.721              1.593              1.206
 Vibration    16          0.728              1.573              1.162
 Vibration    17          0.763              1.477              0.974
 Vibration    18          0.838              1.291              0.706
 Vibration    19          0.864              1.231              0.637
 Vibration    20          0.889              1.175              0.578
 Vibration    21          0.911              1.128              0.533

 Optimization completed.
    -- Stationary point found.
 Normal termination of Gaussian 16 at Tue Sep 17 10:01:23 2024.

 ----------------------------------------------------------------------
 #p M062X/def2tzvp geom=check guess=read scf(xqc,tight) integral(grid=u
 ltrafine) scrf(SMD, solvent=1,4-Dioxane) polar prop=efg volume
 ----------------------------------------------------------------------

 ---
 spe
 ---
 Structure from the checkpoint file:  "smiles_00085_conf_4.chk"
 Charge =  0 Multiplicity = 1

 SCF Done:  E(RM062X) =  -3277.63555725     A.U. after   12 cycles

  Exact polarizability:     202.309       0.000     198.721      -0.000      -0.001      92.899
 Approx polarizability:     194.861       0.000     224.794       0.000      -0.002     115.788

 Normal termination of Gaussian 16 at Tue Sep 17 11:10:54 2024.
 Gaussian 16:  ES64L-G16RevC.02  7-Dec-2021

 ----------------------------------------------------------------------
 #p M062X/def2tzvp geom=check guess=read scf(xqc,tight) integral(grid=u
 ltrafine) scrf(SMD, solvent=1,4-Dioxane) nmr=giao
 ----------------------------------------------------------------------

 ---
 spe
 ---
 Structure from the checkpoint file:  "smiles_00085_conf_4.chk"
 Charge =  0 Multiplicity = 1

                         Standard orientation:
 ---------------------------------------------------------------------
 Center     Atomic      Atomic             Coordinates (Angstroms)
 Number     Number       Type             X           Y           Z
 ---------------------------------------------------------------------
      1          6           0        4.751651   -1.559869   -0.000141
      2          8           0        3.501107   -0.852232   -0.000139
      3          6           0        2.401906   -1.642197    0.000070
      4          8           0        2.437548   -2.848516    0.000239
      5          6           0        1.142584   -0.813617    0.000043
      6          6           0        1.204000    0.586176    0.000082
      7          6           0        0.000000    1.279663    0.000013
      8         35           0        0.000001    3.181780    0.000008
      9          6           0       -1.204000    0.586177   -0.000054
     10          6           0       -1.142585   -0.813616   -0.000002
     11          6           0       -2.401908   -1.642195   -0.000009
     12          8           0       -2.437551   -2.848515   -0.000096
     13          8           0       -3.501108   -0.852230    0.000013
     14          6           0       -4.751652   -1.559867   -0.000021
     15          7           0       -0.000001   -1.503707    0.000025
     16          1           0        4.832531   -2.190366   -0.888473
     17          1           0        5.524110   -0.791985   -0.000062
     18          1           0        4.832462   -2.190516    0.888085
     19          1           0        2.155547    1.098697    0.000178
     20          1           0       -2.155546    1.098698   -0.000157
     21          1           0       -5.524111   -0.791982   -0.000310
     22          1           0       -4.832637   -2.190222    0.888403
     23          1           0       -4.832358   -2.190655   -0.888155
 ---------------------------------------------------------------------

 SCF Done:  E(RM062X) =  -3277.63555725     A.U. after    1 cycles

      1  C    Isotropic =   130.2742   Anisotropy =    73.0394

      2  O    Isotropic =   132.3286   Anisotropy =   173.6864

      3  C    Isotropic =     4.6419   Anisotropy =    92.3104

      4  O    Isotropic =  -155.2941   Anisotropy =   743.6854

      5  C    Isotropic =    12.5556   Anisotropy =   172.1047

      6  C    Isotropic =    31.2086   Anisotropy =   190.6106

      7  C    Isotropic =     8.5771   Anisotropy =   176.1841

      8  Br   Isotropic =  2019.6846   Anisotropy =  1308.0351

      9  C    Isotropic =    31.2086   Anisotropy =   190.6106

     10  C    Isotropic =    12.5555   Anisotropy =   172.1047

     11  C    Isotropic =     4.6419   Anisotropy =    92.3105

     12  O    Isotropic =  -155.2941   Anisotropy =   743.6853

     13  O    Isotropic =   132.3286   Anisotropy =   173.6861

     14  C    Isotropic =   130.2742   Anisotropy =    73.0395

     15  N    Isotropic =  -157.8784   Anisotropy =   683.4528

     16  H    Isotropic =    27.8676   Anisotropy =     8.2038

     17  H    Isotropic =    27.9637   Anisotropy =     7.5028

     18  H    Isotropic =    27.8669   Anisotropy =     8.2022

     19  H    Isotropic =    22.6313   Anisotropy =    14.9034

     20  H    Isotropic =    22.6313   Anisotropy =    14.9034

     21  H    Isotropic =    27.9637   Anisotropy =     7.5028

     22  H    Isotropic =    27.8677   Anisotropy =     8.2040

     23  H    Isotropic =    27.8668   Anisotropy =     8.2020

 The electronic state is 1-A.
 Alpha  occ. eigenvalues -- -485.39587 -63.38056 -57.20007 -57.19765 -57.19753
 Alpha  occ. eigenvalues --  -19.68250 -19.68249 -19.62768 -19.62768 -14.78033
 Alpha  occ. eigenvalues --  -10.68578 -10.68578 -10.63684 -10.61700 -10.61697
 Alpha  occ. eigenvalues --  -10.59244 -10.59244 -10.58608 -10.58606  -9.04697
 Alpha  occ. eigenvalues --   -6.87125  -6.86225  -6.86183  -2.90502  -2.90181
 Alpha  occ. eigenvalues --   -2.90138  -2.89300  -2.89299  -1.24249  -1.24203
 Alpha  occ. eigenvalues --   -1.15114  -1.15026  -1.08790  -0.96593  -0.91736
 Alpha  occ. eigenvalues --   -0.87198  -0.84320  -0.82101  -0.76740  -0.73870
 Alpha  occ. eigenvalues --   -0.66521  -0.66125  -0.63519  -0.60131  -0.59032
 Alpha  occ. eigenvalues --   -0.58863  -0.57846  -0.57419  -0.56202  -0.55407
 Alpha  occ. eigenvalues --   -0.51690  -0.51071  -0.49658  -0.47860  -0.47829
 Alpha  occ. eigenvalues --   -0.47750  -0.46491  -0.44268  -0.44025  -0.41859
 Alpha  occ. eigenvalues --   -0.38620  -0.38609  -0.37613  -0.37550  -0.36244
 Alpha  occ. eigenvalues --   -0.35600  -0.34653  -0.33866
 Alpha virt. eigenvalues --   -0.04784  -0.04264   0.01914   0.04842   0.07829
 Alpha virt. eigenvalues --    0.08261   0.10273   0.10394   0.11037   0.11326
 Alpha virt. eigenvalues --    0.12097   0.12945   0.14951   0.15193   0.15640

 Mulliken charges:
               1
     1  C   -0.272388
     2  O   -0.275326
     3  C    0.323062
     4  O   -0.310947
     5  C    0.088204
     6  C   -0.130763
     7  C    0.028269
     8  Br  -0.060871
     9  C   -0.130763
    10  C    0.088204
    11  C    0.323063
    12  O   -0.310948
    13  O   -0.275326
    14  C   -0.272388
    15  N   -0.187457
    16  H    0.164009
    17  H    0.157796
    18  H    0.164009
    19  H    0.202372
    20  H    0.202372
    21  H    0.157796
    22  H    0.164009
    23  H    0.164009
 Sum of Mulliken charges =  -0.00000

 Dipole moment (field-independent basis, Debye):
    X=             -0.0000    Y=              4.5429    Z=             -0.0002  Tot=              4.5429
 Quadrupole moment (field-independent basis, Debye-Ang):
   XX=            -65.5661   YY=           -118.7228   ZZ=            -97.3416
   XY=             -0.0000   XZ=             -0.0006   YZ=              0.0010

 Normal termination of Gaussian 16 at Tue Sep 17 11:36:58 2024.
