 Gaussian 16, Revision C.02,

 ----------------------------------------------------------------------
 #p B3LYP/gen pseudo=read EmpiricalDispersion=GD3BJ opt freq scf(xqc,ti
 ght) integral(grid=ultrafine)
 ----------------------------------------------------------------------

 ----------------------------------
 opt-freq conformers_unique/conf_ad
 ----------------------------------
 Symbolic Z-matrix:
 Charge =  0 Multiplicity = 1

 SCF Done:  E(RB3LYP) =  -550.308352803     A.U. after   15 cycles
 SCF Done:  E(RB3LYP) =  -550.310080033     A.U. after   13 cycles
 SCF Done:  E(RB3LYP) =  -550.309937918     A.U. after   12 cycles
 SCF Done:  E(RB3LYP) =  -550.310370218     A.U. after   12 cycles
 SCF Done:  E(RB3LYP) =  -550.310469182     A.U. after   12 cycles
 SCF Done:  E(RB3LYP) =  -550.310538421     A.U. after   11 cycles
 SCF Done:  E(RB3LYP) =  -550.310559346     A.U. after   10 cycles
 SCF Done:  E(RB3LYP) =  -550.310567097     A.U. after   10 cycles
 SCF Done:  E(RB3LYP) =  -550.310573170     A.U. after   10 cycles
 SCF Done:  E(RB3LYP) =  -550.310575917     A.U. after    9 cycles
 SCF Done:  E(RB3LYP) =  -550.310576740     A.U. after    8 cycles
 SCF Done:  E(RB3LYP) =  -550.310577345     A.U. after    8 cycles
 SCF Done:  E(RB3LYP) =  -550.310577801     A.U. after    8 cycles
 SCF Done:  E(RB3LYP) =  -550.310578280     A.U. after    8 cycles
 SCF Done:  E(RB3LYP) =  -550.310578386     A.U. after    8 cycles
 Optimization completed.
    -- Stationary point found.
 Normal termination of Gaussian 16 at Tue Sep 17 09:50:28 2024.

 ------------------------------------------------------------------
 #P Geom=AllCheck Guess=TCheck SCRF=Check GenChk RB3LYP/ChkBas Freq
 ------------------------------------------------------------------

 Structure from the checkpoint file:  "smiles_00094_conf_3.chk"
 ----------------------------------
 opt-freq conformers_unique/conf_ad
 ----------------------------------
 Charge =  0 Multiplicity = 1

 SCF Done:  E(RB3LYP) =  -550.310578386     A.U. after    1 cycles

                      1                      2                      3
                      A                      A                      A
 Frequencies --     42.7794                52.2083                73.9354
 Red. masses --      8.8350                 4.9398                 3.3415
 Frc consts  --      0.0095                 0.0079                 0.0108
 IR Inten    --      0.9288                 2.4193                 1.0004

                      4                      5                      6
                      A                      A                      A
 Frequencies --    139.8342               153.4248               188.1766
 Red. masses --      1.4794                 4.0881                 5.4814
 Frc consts  --      0.0170                 0.0567                 0.1144
 IR Inten    --      0.2729                 0.5499                 0.1336

                      7                      8                      9
                      A                      A                      A
 Frequencies --    208.3707               238.2179               295.5256
 Red. masses --     10.9053                 5.2623                 7.3324
 Frc consts  --      0.2790                 0.1759                 0.3773
 IR Inten    --      0.8478                 1.3786                 2.0653

                     10                     11                     12
                      A                      A                      A
 Frequencies --    341.8559               405.9823               455.7688
 Red. masses --      5.1737                 7.1093                 3.2073
 Frc consts  --      0.3562                 0.6904                 0.3925
 IR Inten    --      0.9339                 5.6612                 3.3830

                     13                     14                     15
                      A                      A                      A
 Frequencies --    481.9589               512.1402               523.4615
 Red. masses --      1.3114                 3.5704                 5.1688
 Frc consts  --      0.1795                 0.5518                 0.8345
 IR Inten    --     81.4629                11.2680                11.7146

                     16                     17                     18
                      A                      A                      A
 Frequencies --    582.3604               585.7390               615.8062
 Red. masses --      5.8318                 4.9583                 2.3358
 Frc consts  --      1.1653                 1.0023                 0.5219
 IR Inten    --      2.4256                 8.4593                54.1455

                     19                     20                     21
                      A                      A                      A
 Frequencies --    667.7079               718.3583               791.3546
 Red. masses --      6.2138                 4.5383                 3.0408
 Frc consts  --      1.6322                 1.3798                 1.1220
 IR Inten    --      2.2492                 6.2957                 3.2551

                     22                     23                     24
                      A                      A                      A
 Frequencies --    837.0720               856.1474               879.6021
 Red. masses --      1.6337                 5.9419                 1.3874
 Frc consts  --      0.6745                 2.5661                 0.6325
 IR Inten    --     16.5223                67.9380                14.4058

                     25                     26                     27
                      A                      A                      A
 Frequencies --    931.0564               960.6239              1030.8111
 Red. masses --      4.2782                 1.3372                 1.5991
 Frc consts  --      2.1851                 0.7270                 1.0011
 IR Inten    --     23.4868                 0.5770                27.0430

                     28                     29                     30
                      A                      A                      A
 Frequencies --   1062.5508              1088.5717              1159.0276
 Red. masses --      1.7240                 1.9335                 1.5229
 Frc consts  --      1.1468                 1.3499                 1.2054
 IR Inten    --      7.7135                10.4531                14.2333

                     31                     32                     33
                      A                      A                      A
 Frequencies --   1252.0865              1270.6998              1273.4987
 Red. masses --      3.4008                 1.6376                 1.9631
 Frc consts  --      3.1413                 1.5580                 1.8758
 IR Inten    --     43.6628                 2.8363                17.8817

                     34                     35                     36
                      A                      A                      A
 Frequencies --   1329.6030              1345.2443              1412.8813
 Red. masses --      3.0152                 4.4152                 1.4378
 Frc consts  --      3.1406                 4.7077                 1.6910
 IR Inten    --    156.5031               138.8248               101.5659

                     37                     38                     39
                      A                      A                      A
 Frequencies --   1430.1656              1474.0200              1490.5189
 Red. masses --      2.4647                 2.6584                 1.0539
 Frc consts  --      2.9703                 3.4031                 1.3795
 IR Inten    --     50.9023                40.3570                17.4697

                     40                     41                     42
                      A                      A                      A
 Frequencies --   1496.5721              1540.2297              1627.2425
 Red. masses --      1.0747                 3.3252                 7.7450
 Frc consts  --      1.4182                 4.6477                12.0831
 IR Inten    --     11.3074               255.0509                27.3419

                     43                     44                     45
                      A                      A                      A
 Frequencies --   1652.1420              1808.1485              3072.8136
 Red. masses --      7.2825                 8.6634                 1.0370
 Frc consts  --     11.7118                16.6881                 5.7692
 IR Inten    --      1.5870               470.4787                 3.5013

                     46                     47                     48
                      A                      A                      A
 Frequencies --   3145.2822              3181.3914              3202.1369
 Red. masses --      1.0999                 1.1033                 1.0899
 Frc consts  --      6.4111                 6.5791                 6.5843
 IR Inten    --      6.2376                 7.1860                 3.2470

                     49                     50                     51
                      A                      A                      A
 Frequencies --   3230.5921              3237.8889              3607.3349
 Red. masses --      1.0941                 1.0927                 1.0757
 Frc consts  --      6.7278                 6.7498                 8.2477
 IR Inten    --      1.5379                 1.9447                34.2533

 - Thermochemistry -
 -------------------
 Temperature   298.150 Kelvin.  Pressure   1.00000 Atm.
 Atom     1 has atomic number  6 and mass  12.00000

 Molecular mass:   278.95157 amu.
 Principal axes and moments of inertia in atomic units:
                           1         2         3
     Eigenvalues --   833.183858739.050229192.56006
           X            0.99995  -0.00130   0.01005
           Y            0.00175   0.99896  -0.04552
           Z           -0.00998   0.04554   0.99891
 This molecule is an asymmetric top.
 Rotational symmetry number  1.
 Warning -- assumption of classical behavior for rotation
           may cause significant error
 Rotational temperatures (Kelvin)      0.10396     0.00991     0.00942
 Rotational constants (GHZ):           2.16608     0.20651     0.19633
 Zero-point vibrational energy     358646.0 (Joules/Mol)
                                   85.71844 (Kcal/Mol)
 Warning -- explicit consideration of  18 degrees of freedom as
           vibrations may cause significant error
 Vibrational temperatures:     61.55    75.12   106.38   201.19   220.74
          (Kelvin)            270.74   299.80   342.74   425.20   491.85
                              584.12   655.75   693.43   736.86   753.14
                              837.89   842.75   886.01   960.68  1033.56
                             1138.58  1204.36  1231.81  1265.55  1339.58
                             1382.12  1483.11  1528.77  1566.21  1667.58
                             1801.47  1828.25  1832.28  1913.00  1935.51
                             2032.82  2057.69  2120.79  2144.52  2153.23
                             2216.05  2341.24  2377.06  2601.52  4421.09
                             4525.36  4577.31  4607.16  4648.10  4658.60
                             5190.15

 Zero-point correction=                           0.136601 (Hartree/Particle)
 Thermal correction to Energy=                    0.148137
 Thermal correction to Enthalpy=                  0.149081
 Thermal correction to Gibbs Free Energy=         0.096546
 Sum of electronic and zero-point Energies=           -550.173977
 Sum of electronic and thermal Energies=              -550.162442
 Sum of electronic and thermal Enthalpies=            -550.161498
 Sum of electronic and thermal Free Energies=         -550.214032

                     E (Thermal)             CV                S
                      KCal/Mol        Cal/Mol-Kelvin    Cal/Mol-Kelvin
 Total                   92.957             41.554            110.568
 Electronic               0.000              0.000              0.000
 Translational            0.889              2.981             42.776
 Rotational               0.889              2.981             32.570
 Vibrational             91.180             35.592             35.221
 Vibration     1          0.595              1.980              5.126
 Vibration     2          0.596              1.977              4.732
 Vibration     3          0.599              1.966              4.046
 Vibration     4          0.615              1.913              2.806
 Vibration     5          0.619              1.899              2.629
 Vibration     6          0.633              1.856              2.246
 Vibration     7          0.642              1.828              2.058
 Vibration     8          0.656              1.782              1.816
 Vibration     9          0.690              1.682              1.442
 Vibration    10          0.721              1.592              1.203
 Vibration    11          0.771              1.457              0.941
 Vibration    12          0.814              1.348              0.779
 Vibration    13          0.838              1.290              0.705
 Vibration    14          0.867              1.223              0.628
 Vibration    15          0.878              1.198              0.602
 Vibration    16          0.939              1.069              0.481
 Vibration    17          0.943              1.062              0.475
 Vibration    18          0.975              0.998              0.423

 Optimization completed.
    -- Stationary point found.
 Normal termination of Gaussian 16 at Tue Sep 17 09:51:28 2024.

 ----------------------------------------------------------------------
 #p M062X/def2tzvp geom=check guess=read scf(xqc,tight) integral(grid=u
 ltrafine) scrf(SMD, solvent=1,4-Dioxane) polar prop=efg volume
 ----------------------------------------------------------------------

 ---
 spe
 ---
 Structure from the checkpoint file:  "smiles_00094_conf_3.chk"
 Charge =  0 Multiplicity = 1

 SCF Done:  E(RM062X) =  -836.528456282     A.U. after   23 cycles

  Exact polarizability:     238.219       5.197     136.778      -4.289      -0.921      95.837
 Approx polarizability:     229.930       5.058     167.410      -8.096       2.790     117.435

 Normal termination of Gaussian 16 at Tue Sep 17 10:39:51 2024.
 Gaussian 16:  ES64L-G16RevC.02  7-Dec-2021

 ----------------------------------------------------------------------
 #p M062X/def2tzvp geom=check guess=read scf(xqc,tight) integral(grid=u
 ltrafine) scrf(SMD, solvent=1,4-Dioxane) nmr=giao
 ----------------------------------------------------------------------

 ---
 spe
 ---
 Structure from the checkpoint file:  "smiles_00094_conf_3.chk"
 Charge =  0 Multiplicity = 1

                         Standard orientation:
 ---------------------------------------------------------------------
 Center     Atomic      Atomic             Coordinates (Angstroms)
 Number     Number       Type             X           Y           Z
 ---------------------------------------------------------------------
      1          6           0        3.869702   -0.804330    1.339545
      2          6           0        4.248278    0.146309    0.223619
      3          8           0        5.402736    0.430680   -0.048934
      4          7           0        3.210588    0.724238   -0.495629
      5          6           0        1.821622    0.545930   -0.338994
      6          6           0        0.977816    1.636653   -0.096760
      7          6           0       -0.402205    1.479995    0.017866
      8          6           0       -0.951478    0.203177   -0.093306
      9         53           0       -3.060545   -0.063480    0.108402
     10          6           0       -0.145660   -0.906774   -0.336401
     11          6           0        1.222448   -0.712385   -0.474902
     12          9           0        1.994060   -1.781111   -0.753439
     13          1           0        4.730814   -0.902809    1.999515
     14          1           0        3.621390   -1.785191    0.927229
     15          1           0        3.002786   -0.449726    1.903943
     16          1           0        3.528218    1.429891   -1.148061
     17          1           0        1.422861    2.621105    0.009496
     18          1           0       -1.033316    2.340119    0.204710
     19          1           0       -0.549567   -1.905491   -0.444296
 ---------------------------------------------------------------------

 SCF Done:  E(RM062X) =  -836.528456282     A.U. after    1 cycles

      1  C    Isotropic =   163.8552   Anisotropy =    44.5681

      2  C    Isotropic =    -6.3193   Anisotropy =   144.2751

      3  O    Isotropic =  -161.9462   Anisotropy =   679.1845

      4  N    Isotropic =   112.4228   Anisotropy =   153.6691

      5  C    Isotropic =    37.7970   Anisotropy =   158.3773

      6  C    Isotropic =    35.0237   Anisotropy =   184.1992

      7  C    Isotropic =    30.4338   Anisotropy =   179.6688

      8  C    Isotropic =    29.4814   Anisotropy =   147.3625

      9  I    Isotropic =   433.1481   Anisotropy =    74.9597

     10  C    Isotropic =    39.9487   Anisotropy =   152.7031

     11  C    Isotropic =     5.4791   Anisotropy =   122.8019

     12  F    Isotropic =   291.7133   Anisotropy =   139.3040

     13  H    Isotropic =    30.0586   Anisotropy =     8.6102

     14  H    Isotropic =    29.5055   Anisotropy =     5.2183

     15  H    Isotropic =    30.1131   Anisotropy =     4.3770

     16  H    Isotropic =    25.2519   Anisotropy =     7.4610

     17  H    Isotropic =    24.0177   Anisotropy =     7.3478

     18  H    Isotropic =    23.7684   Anisotropy =    11.4867

     19  H    Isotropic =    23.7537   Anisotropy =    12.0767

 The electronic state is 1-A.
 Alpha  occ. eigenvalues --  -25.27771 -19.60028 -14.78573 -10.65554 -10.65185
 Alpha  occ. eigenvalues --  -10.61397 -10.61213 -10.57425 -10.57239 -10.57009
 Alpha  occ. eigenvalues --  -10.53851  -7.11375  -5.10739  -5.09667  -5.09661
 Alpha  occ. eigenvalues --   -2.07568  -2.07122  -2.07121  -2.06228  -2.06227
 Alpha  occ. eigenvalues --   -1.39234  -1.16803  -1.05632  -0.98330  -0.87648
 Alpha  occ. eigenvalues --   -0.87209  -0.83712  -0.79090  -0.73543  -0.71762
 Alpha  occ. eigenvalues --   -0.67626  -0.63518  -0.61345  -0.60197  -0.59308
 Alpha  occ. eigenvalues --   -0.55617  -0.53821  -0.52737  -0.52190  -0.50902
 Alpha  occ. eigenvalues --   -0.48535  -0.46709  -0.46414  -0.45880  -0.43678
 Alpha  occ. eigenvalues --   -0.40861  -0.38265  -0.34146  -0.33786  -0.33071
 Alpha  occ. eigenvalues --   -0.32986  -0.29291
 Alpha virt. eigenvalues --   -0.01432  -0.01337   0.00183   0.05930   0.06923
 Alpha virt. eigenvalues --    0.08950   0.09557   0.11294   0.12579   0.13441
 Alpha virt. eigenvalues --    0.14419   0.15176   0.15512   0.16552   0.16892

 Mulliken charges:
               1
     1  C   -0.519475
     2  C    0.342955
     3  O   -0.387983
     4  N   -0.374640
     5  C    0.085159
     6  C   -0.164274
     7  C   -0.209881
     8  C    0.083264
     9  I   -0.077549
    10  C   -0.240740
    11  C    0.269426
    12  F   -0.203843
    13  H    0.171101
    14  H    0.193740
    15  H    0.184151
    16  H    0.270417
    17  H    0.188317
    18  H    0.191387
    19  H    0.198471
 Sum of Mulliken charges =   0.00000

 Dipole moment (field-independent basis, Debye):
    X=             -3.2503    Y=              1.1096    Z=              0.6270  Tot=              3.4912
 Quadrupole moment (field-independent basis, Debye-Ang):
   XX=           -120.7361   YY=            -82.9422   ZZ=            -89.8419
   XY=              0.0950   XZ=              2.7363   YZ=             -2.2082

 Normal termination of Gaussian 16 at Tue Sep 17 10:53:15 2024.
