 Gaussian 16, Revision C.02,

 ----------------------------------------------------------------------
 #p B3LYP/gen pseudo=read EmpiricalDispersion=GD3BJ opt freq scf(xqc,ti
 ght) integral(grid=ultrafine)
 ----------------------------------------------------------------------

 ----------------------------------
 opt-freq conformers_unique/conf_ab
 ----------------------------------
 Symbolic Z-matrix:
 Charge =  0 Multiplicity = 1

 SCF Done:  E(RB3LYP) =  -550.309570089     A.U. after   15 cycles
 SCF Done:  E(RB3LYP) =  -550.311054662     A.U. after   12 cycles
 SCF Done:  E(RB3LYP) =  -550.311104771     A.U. after   11 cycles
 SCF Done:  E(RB3LYP) =  -550.311149549     A.U. after   10 cycles
 SCF Done:  E(RB3LYP) =  -550.311156501     A.U. after   10 cycles
 SCF Done:  E(RB3LYP) =  -550.311165861     A.U. after    9 cycles
 SCF Done:  E(RB3LYP) =  -550.311175506     A.U. after   10 cycles
 SCF Done:  E(RB3LYP) =  -550.311178151     A.U. after    9 cycles
 SCF Done:  E(RB3LYP) =  -550.311178436     A.U. after    8 cycles
 SCF Done:  E(RB3LYP) =  -550.311178494     A.U. after    7 cycles
 SCF Done:  E(RB3LYP) =  -550.311178524     A.U. after    7 cycles
 SCF Done:  E(RB3LYP) =  -550.311178548     A.U. after    7 cycles
 SCF Done:  E(RB3LYP) =  -550.311178564     A.U. after    7 cycles
 Optimization completed.
    -- Stationary point found.
 Normal termination of Gaussian 16 at Tue Sep 17 09:50:01 2024.

 ------------------------------------------------------------------
 #P Geom=AllCheck Guess=TCheck SCRF=Check GenChk RB3LYP/ChkBas Freq
 ------------------------------------------------------------------

 Structure from the checkpoint file:  "smiles_00094_conf_1.chk"
 ----------------------------------
 opt-freq conformers_unique/conf_ab
 ----------------------------------
 Charge =  0 Multiplicity = 1

 SCF Done:  E(RB3LYP) =  -550.311178564     A.U. after    1 cycles

                      1                      2                      3
                      A                      A                      A
 Frequencies --     36.5539                52.6079                91.8571
 Red. masses --      4.0893                 6.9544                 8.2017
 Frc consts  --      0.0032                 0.0113                 0.0408
 IR Inten    --      1.3361                 2.5087                 0.9873

                      4                      5                      6
                      A                      A                      A
 Frequencies --    141.2563               185.2793               207.1397
 Red. masses --      7.0776                10.8082                 4.4174
 Frc consts  --      0.0832                 0.2186                 0.1117
 IR Inten    --      0.6059                 0.1127                 0.2633

                      7                      8                      9
                      A                      A                      A
 Frequencies --    226.1834               235.4933               283.4550
 Red. masses --      1.3859                 3.6224                 4.8796
 Frc consts  --      0.0418                 0.1184                 0.2310
 IR Inten    --      0.4893                 1.3302                 4.1930

                     10                     11                     12
                      A                      A                      A
 Frequencies --    347.6791               395.1272               454.6120
 Red. masses --      5.8102                 6.2954                 3.2589
 Frc consts  --      0.4138                 0.5791                 0.3968
 IR Inten    --      1.7510                 8.4681                 3.0469

                     13                     14                     15
                      A                      A                      A
 Frequencies --    490.8213               534.8466               550.3703
 Red. masses --      4.8475                 2.6267                 3.3837
 Frc consts  --      0.6880                 0.4427                 0.6039
 IR Inten    --     19.0111                17.6620                 2.5124

                     16                     17                     18
                      A                      A                      A
 Frequencies --    579.5880               582.1988               665.2124
 Red. masses --      5.1827                 4.4335                 3.6356
 Frc consts  --      1.0258                 0.8854                 0.9479
 IR Inten    --      6.4021                 2.6378                24.2723

                     19                     20                     21
                      A                      A                      A
 Frequencies --    681.8503               704.1143               799.7676
 Red. masses --      1.8359                 4.5024                 3.3608
 Frc consts  --      0.5029                 1.3152                 1.2665
 IR Inten    --     72.7929                 4.5243                 8.3149

                     22                     23                     24
                      A                      A                      A
 Frequencies --    824.1093               860.9829               876.2644
 Red. masses --      1.5037                 7.2819                 1.3452
 Frc consts  --      0.6017                 3.1804                 0.6086
 IR Inten    --     19.3563                72.9186                15.9665

                     25                     26                     27
                      A                      A                      A
 Frequencies --    933.6884               950.1291              1029.1807
 Red. masses --      4.1249                 1.3047                 1.5987
 Frc consts  --      2.1187                 0.6939                 0.9977
 IR Inten    --     10.9124                 0.9479                25.9144

                     28                     29                     30
                      A                      A                      A
 Frequencies --   1057.8500              1092.5878              1149.8836
 Red. masses --      1.7374                 1.8916                 2.1554
 Frc consts  --      1.1455                 1.3304                 1.6791
 IR Inten    --      8.6157                 7.1891                20.7516

                     31                     32                     33
                      A                      A                      A
 Frequencies --   1221.6347              1268.3985              1317.7345
 Red. masses --      1.6739                 1.7570                 3.1618
 Frc consts  --      1.4718                 1.6655                 3.2348
 IR Inten    --      4.5027                48.1456                57.0576

                     34                     35                     36
                      A                      A                      A
 Frequencies --   1335.2556              1365.0539              1412.0532
 Red. masses --      2.8079                 3.3596                 1.4629
 Frc consts  --      2.9496                 3.6884                 1.7186
 IR Inten    --    265.9837                91.0804               121.6479

                     37                     38                     39
                      A                      A                      A
 Frequencies --   1452.1274              1478.7292              1486.6702
 Red. masses --      3.5433                 1.8998                 1.0598
 Frc consts  --      4.4022                 2.4476                 1.3801
 IR Inten    --     21.5499                31.9442                20.5282

                     40                     41                     42
                      A                      A                      A
 Frequencies --   1500.6783              1549.2438              1632.9357
 Red. masses --      1.0695                 3.3353                 6.7717
 Frc consts  --      1.4191                 4.7166                10.6386
 IR Inten    --     10.4217               331.8860                22.5695

                     43                     44                     45
                      A                      A                      A
 Frequencies --   1657.7035              1802.1407              3062.8049
 Red. masses --      7.0880                 8.2561                 1.0391
 Frc consts  --     11.4760                15.7981                 5.7431
 IR Inten    --      5.8094               517.7735                 3.0245

                     46                     47                     48
                      A                      A                      A
 Frequencies --   3134.0990              3177.1476              3224.7353
 Red. masses --      1.0985                 1.1031                 1.0903
 Frc consts  --      6.3571                 6.5605                 6.6801
 IR Inten    --      6.9804                 7.6269                 0.3486

                     49                     50                     51
                      A                      A                      A
 Frequencies --   3238.7402              3249.0828              3603.8744
 Red. masses --      1.0927                 1.0924                 1.0752
 Frc consts  --      6.7531                 6.7944                 8.2278
 IR Inten    --      1.4952                 3.4980                46.9511

 - Thermochemistry -
 -------------------
 Temperature   298.150 Kelvin.  Pressure   1.00000 Atm.
 Atom     1 has atomic number  6 and mass  12.00000

 Molecular mass:   278.95157 amu.
 Principal axes and moments of inertia in atomic units:
                           1         2         3
     Eigenvalues --   981.507548703.047949579.70913
           X            0.99981  -0.01923   0.00362
           Y            0.01926   0.99978  -0.00830
           Z           -0.00346   0.00837   0.99996
 This molecule is an asymmetric top.
 Rotational symmetry number  1.
 Warning -- assumption of classical behavior for rotation
           may cause significant error
 Rotational temperatures (Kelvin)      0.08825     0.00995     0.00904
 Rotational constants (GHZ):           1.83874     0.20737     0.18839
 Zero-point vibrational energy     360025.3 (Joules/Mol)
                                   86.04812 (Kcal/Mol)
 Warning -- explicit consideration of  17 degrees of freedom as
           vibrations may cause significant error
 Vibrational temperatures:     52.59    75.69   132.16   203.24   266.58
          (Kelvin)            298.03   325.43   338.82   407.83   500.23
                              568.50   654.09   706.18   769.52   791.86
                              833.90   837.65   957.09   981.03  1013.06
                             1150.69  1185.71  1238.76  1260.75  1343.37
                             1367.02  1480.76  1522.01  1571.99  1654.43
                             1757.66  1824.94  1895.93  1921.14  1964.01
                             2031.63  2089.29  2127.56  2138.99  2159.14
                             2229.02  2349.43  2385.07  2592.88  4406.69
                             4509.27  4571.21  4639.67  4659.82  4674.71
                             5185.17

 Zero-point correction=                           0.137126 (Hartree/Particle)
 Thermal correction to Energy=                    0.148490
 Thermal correction to Enthalpy=                  0.149434
 Thermal correction to Gibbs Free Energy=         0.097241
 Sum of electronic and zero-point Energies=           -550.174052
 Sum of electronic and thermal Energies=              -550.162688
 Sum of electronic and thermal Enthalpies=            -550.161744
 Sum of electronic and thermal Free Energies=         -550.213938

                     E (Thermal)             CV                S
                      KCal/Mol        Cal/Mol-Kelvin    Cal/Mol-Kelvin
 Total                   93.179             41.272            109.851
 Electronic               0.000              0.000              0.000
 Translational            0.889              2.981             42.776
 Rotational               0.889              2.981             32.770
 Vibrational             91.402             35.310             34.305
 Vibration     1          0.594              1.982              5.438
 Vibration     2          0.596              1.977              4.717
 Vibration     3          0.602              1.955              3.620
 Vibration     4          0.615              1.912              2.787
 Vibration     5          0.631              1.860              2.275
 Vibration     6          0.641              1.830              2.069
 Vibration     7          0.650              1.801              1.909
 Vibration     8          0.655              1.786              1.837
 Vibration     9          0.682              1.704              1.513
 Vibration    10          0.725              1.580              1.177
 Vibration    11          0.762              1.481              0.981
 Vibration    12          0.813              1.351              0.782
 Vibration    13          0.847              1.270              0.681
 Vibration    14          0.890              1.173              0.576
 Vibration    15          0.906              1.139              0.543
 Vibration    16          0.936              1.075              0.486
 Vibration    17          0.939              1.070              0.481

 Optimization completed.
    -- Stationary point found.
 Normal termination of Gaussian 16 at Tue Sep 17 09:51:04 2024.

 ----------------------------------------------------------------------
 #p M062X/def2tzvp geom=check guess=read scf(xqc,tight) integral(grid=u
 ltrafine) scrf(SMD, solvent=1,4-Dioxane) polar prop=efg volume
 ----------------------------------------------------------------------

 ---
 spe
 ---
 Structure from the checkpoint file:  "smiles_00094_conf_1.chk"
 Charge =  0 Multiplicity = 1

 SCF Done:  E(RM062X) =  -836.529108503     A.U. after   23 cycles

  Exact polarizability:     250.214       0.151     141.292      -2.744       3.338      89.678
 Approx polarizability:     239.213       5.579     169.765      -4.368       6.491     113.508

 Normal termination of Gaussian 16 at Tue Sep 17 10:37:48 2024.
 Gaussian 16:  ES64L-G16RevC.02  7-Dec-2021

 ----------------------------------------------------------------------
 #p M062X/def2tzvp geom=check guess=read scf(xqc,tight) integral(grid=u
 ltrafine) scrf(SMD, solvent=1,4-Dioxane) nmr=giao
 ----------------------------------------------------------------------

 ---
 spe
 ---
 Structure from the checkpoint file:  "smiles_00094_conf_1.chk"
 Charge =  0 Multiplicity = 1

                         Standard orientation:
 ---------------------------------------------------------------------
 Center     Atomic      Atomic             Coordinates (Angstroms)
 Number     Number       Type             X           Y           Z
 ---------------------------------------------------------------------
      1          6           0        4.062291   -1.781417    0.576898
      2          6           0        4.319326   -0.387205    0.045907
      3          8           0        5.444772    0.070061   -0.067386
      4          7           0        3.233556    0.402624   -0.312679
      5          6           0        1.853281    0.187366   -0.233212
      6          6           0        1.207723   -1.039077   -0.434182
      7          6           0       -0.181021   -1.145518   -0.342182
      8          6           0       -0.947470   -0.013604   -0.078995
      9         53           0       -3.072630   -0.171316    0.050762
     10          6           0       -0.342447    1.231806    0.090597
     11          6           0        1.037373    1.302706    0.012668
     12          9           0        1.645762    2.500758    0.167209
     13          1           0        3.906383   -2.482731   -0.249491
     14          1           0        3.189910   -1.827328    1.232929
     15          1           0        4.956030   -2.090143    1.118628
     16          1           0        3.514372    1.357113   -0.502371
     17          1           0        1.785502   -1.918501   -0.684128
     18          1           0       -0.653525   -2.108065   -0.495688
     19          1           0       -0.908534    2.133393    0.287690
 ---------------------------------------------------------------------

 SCF Done:  E(RM062X) =  -836.529108503     A.U. after    1 cycles

      1  C    Isotropic =   161.2001   Anisotropy =    34.8512

      2  C    Isotropic =    -4.4352   Anisotropy =   142.7568

      3  O    Isotropic =  -179.5661   Anisotropy =   693.0841

      4  N    Isotropic =   103.4558   Anisotropy =   127.0844

      5  C    Isotropic =    37.1352   Anisotropy =   164.0186

      6  C    Isotropic =    43.2067   Anisotropy =   189.1447

      7  C    Isotropic =    31.0602   Anisotropy =   179.4344

      8  C    Isotropic =    36.6267   Anisotropy =   136.3783

      9  I    Isotropic =   433.7115   Anisotropy =    74.8531

     10  C    Isotropic =    41.6823   Anisotropy =   152.7234

     11  C    Isotropic =    11.9823   Anisotropy =   110.8236

     12  F    Isotropic =   307.0202   Anisotropy =   138.2031

     13  H    Isotropic =    29.5479   Anisotropy =     6.2791

     14  H    Isotropic =    29.5329   Anisotropy =     4.5612

     15  H    Isotropic =    29.7581   Anisotropy =     7.9195

     16  H    Isotropic =    24.5116   Anisotropy =     7.1380

     17  H    Isotropic =    23.9118   Anisotropy =     9.2112

     18  H    Isotropic =    23.8023   Anisotropy =    11.9668

     19  H    Isotropic =    23.8250   Anisotropy =    11.6470

 The electronic state is 1-A.
 Alpha  occ. eigenvalues --  -25.27798 -19.60632 -14.79365 -10.66237 -10.64858
 Alpha  occ. eigenvalues --  -10.61642 -10.60886 -10.57283 -10.57023 -10.56842
 Alpha  occ. eigenvalues --  -10.54639  -7.11148  -5.10508  -5.09439  -5.09438
 Alpha  occ. eigenvalues --   -2.07338  -2.06895  -2.06891  -2.06004  -2.06003
 Alpha  occ. eigenvalues --   -1.39132  -1.17462  -1.06266  -0.98229  -0.87523
 Alpha  occ. eigenvalues --   -0.87281  -0.84409  -0.79037  -0.73680  -0.71976
 Alpha  occ. eigenvalues --   -0.66965  -0.64714  -0.61577  -0.59361  -0.58927
 Alpha  occ. eigenvalues --   -0.55860  -0.53937  -0.53426  -0.52504  -0.50738
 Alpha  occ. eigenvalues --   -0.48878  -0.47711  -0.46918  -0.45461  -0.44176
 Alpha  occ. eigenvalues --   -0.40644  -0.39805  -0.34816  -0.33723  -0.32909
 Alpha  occ. eigenvalues --   -0.32857  -0.28222
 Alpha virt. eigenvalues --   -0.01218  -0.00869   0.00327   0.05552   0.07008
 Alpha virt. eigenvalues --    0.08528   0.10023   0.11726   0.12014   0.13810
 Alpha virt. eigenvalues --    0.14664   0.14907   0.16027   0.16451   0.17409

 Mulliken charges:
               1
     1  C   -0.546987
     2  C    0.357448
     3  O   -0.383235
     4  N   -0.355829
     5  C    0.132735
     6  C   -0.204070
     7  C   -0.210626
     8  C    0.077638
     9  I   -0.083758
    10  C   -0.258215
    11  C    0.277066
    12  F   -0.212574
    13  H    0.183284
    14  H    0.194825
    15  H    0.177227
    16  H    0.267207
    17  H    0.200463
    18  H    0.190484
    19  H    0.196917
 Sum of Mulliken charges =  -0.00000

 Dipole moment (field-independent basis, Debye):
    X=             -2.2402    Y=             -2.1683    Z=              0.0425  Tot=              3.1180
 Quadrupole moment (field-independent basis, Debye-Ang):
   XX=           -116.5463   YY=            -83.4512   ZZ=            -91.5960
   XY=             -8.2426   XZ=              0.9217   YZ=              0.0233

 Normal termination of Gaussian 16 at Tue Sep 17 10:50:54 2024.
