 Gaussian 16, Revision C.02,

 ----------------------------------------------------------------------
 #p B3LYP/6-31G(d,p) EmpiricalDispersion=GD3BJ opt freq scf(xqc,tight)
 integral(grid=ultrafine)
 ----------------------------------------------------------------------

 ----------------------------------
 opt-freq conformers_unique/conf_ad
 ----------------------------------
 Symbolic Z-matrix:
 Charge =  0 Multiplicity = 1

 SCF Done:  E(RB3LYP) =  -3263.53283018     A.U. after   14 cycles
 SCF Done:  E(RB3LYP) =  -3263.53444434     A.U. after   14 cycles
 SCF Done:  E(RB3LYP) =  -3263.53537339     A.U. after   12 cycles
 SCF Done:  E(RB3LYP) =  -3263.53578350     A.U. after   11 cycles
 SCF Done:  E(RB3LYP) =  -3263.53612563     A.U. after   13 cycles
 SCF Done:  E(RB3LYP) =  -3263.53623619     A.U. after   10 cycles
 SCF Done:  E(RB3LYP) =  -3263.53627486     A.U. after   11 cycles
 SCF Done:  E(RB3LYP) =  -3263.53628070     A.U. after    8 cycles
 SCF Done:  E(RB3LYP) =  -3263.53628615     A.U. after    9 cycles
 SCF Done:  E(RB3LYP) =  -3263.53628983     A.U. after    9 cycles
 SCF Done:  E(RB3LYP) =  -3263.53629103     A.U. after    9 cycles
 SCF Done:  E(RB3LYP) =  -3263.53629282     A.U. after    9 cycles
 SCF Done:  E(RB3LYP) =  -3263.53629388     A.U. after    9 cycles
 SCF Done:  E(RB3LYP) =  -3263.53629453     A.U. after    8 cycles
 SCF Done:  E(RB3LYP) =  -3263.53629503     A.U. after    8 cycles
 SCF Done:  E(RB3LYP) =  -3263.53629507     A.U. after    7 cycles
 Optimization completed.
    -- Stationary point found.
 Normal termination of Gaussian 16 at Tue Sep 17 09:58:13 2024.

 ----------------------------------------------------------------------
 #P Geom=AllCheck Guess=TCheck SCRF=Check GenChk RB3LYP/6-31G(d,p) Freq
 ----------------------------------------------------------------------

 Structure from the checkpoint file:  "smiles_00036_conf_3.chk"
 ----------------------------------
 opt-freq conformers_unique/conf_ad
 ----------------------------------
 Charge =  0 Multiplicity = 1

 SCF Done:  E(RB3LYP) =  -3263.53629507     A.U. after    1 cycles

                      1                      2                      3
                      A                      A                      A
 Frequencies --     24.3374                52.1051                61.1247
 Red. masses --      4.3480                 4.9719                 4.4927
 Frc consts  --      0.0015                 0.0080                 0.0099
 IR Inten    --      1.9403                 1.6035                 0.2092

                      4                      5                      6
                      A                      A                      A
 Frequencies --     75.3119                95.2071               129.0744
 Red. masses --      4.5143                 3.0024                 5.2652
 Frc consts  --      0.0151                 0.0160                 0.0517
 IR Inten    --      0.9746                 3.6374                 1.1736

                      7                      8                      9
                      A                      A                      A
 Frequencies --    147.5747               162.1829               179.9986
 Red. masses --      5.2440                 1.0941                 2.6512
 Frc consts  --      0.0673                 0.0170                 0.0506
 IR Inten    --      2.8418                 0.0017                 1.0711

                     10                     11                     12
                      A                      A                      A
 Frequencies --    200.3130               227.8778               262.8742
 Red. masses --      3.9496                 1.5969                 4.5839
 Frc consts  --      0.0934                 0.0489                 0.1866
 IR Inten    --      2.2867                 0.6282                 0.0787

                     13                     14                     15
                      A                      A                      A
 Frequencies --    281.7123               295.4425               330.4081
 Red. masses --      2.8127                 5.0696                 4.7820
 Frc consts  --      0.1315                 0.2607                 0.3076
 IR Inten    --      0.9260                 1.8363                 0.4008

                     16                     17                     18
                      A                      A                      A
 Frequencies --    356.1847               400.8483               438.3007
 Red. masses --      5.4694                 6.2387                 4.6767
 Frc consts  --      0.4088                 0.5906                 0.5293
 IR Inten    --      5.4724                 5.9663                 1.4912

                     19                     20                     21
                      A                      A                      A
 Frequencies --    461.0456               507.0810               527.5588
 Red. masses --      3.5208                 4.6349                 6.1947
 Frc consts  --      0.4409                 0.7022                 1.0158
 IR Inten    --      2.4398                 2.5843                 3.5769

                     22                     23                     24
                      A                      A                      A
 Frequencies --    568.4735               579.9638               621.3310
 Red. masses --      4.6255                 4.6443                 4.7662
 Frc consts  --      0.8807                 0.9204                 1.0841
 IR Inten    --      3.9918                 7.9682                 3.1026

                     25                     26                     27
                      A                      A                      A
 Frequencies --    665.6417               670.0831               714.4244
 Red. masses --      4.4635                 5.9153                 6.4834
 Frc consts  --      1.1652                 1.5649                 1.9497
 IR Inten    --      4.2525                 5.2038                 8.1116

                     28                     29                     30
                      A                      A                      A
 Frequencies --    744.5735               758.2168               774.8315
 Red. masses --      2.1790                 1.9431                 1.4216
 Frc consts  --      0.7118                 0.6582                 0.5029
 IR Inten    --      8.2852                23.6035                23.7720

                     31                     32                     33
                      A                      A                      A
 Frequencies --    788.8468               810.6305               877.1287
 Red. masses --      5.6470                 3.1297                 1.4755
 Frc consts  --      2.0704                 1.2117                 0.6688
 IR Inten    --      1.6285                24.8178                 0.2481

                     34                     35                     36
                      A                      A                      A
 Frequencies --    886.7870               947.9459               961.8645
 Red. masses --      1.4097                 3.9865                 1.4888
 Frc consts  --      0.6532                 2.1106                 0.8115
 IR Inten    --      0.0915                 9.4672                 2.0562

                     37                     38                     39
                      A                      A                      A
 Frequencies --    962.2606               995.1658              1023.1774
 Red. masses --      1.2556                 1.2963                 7.5149
 Frc consts  --      0.6850                 0.7564                 4.6352
 IR Inten    --      0.3909                 0.0529                 9.8408

                     40                     41                     42
                      A                      A                      A
 Frequencies --   1053.7648              1058.4888              1083.1474
 Red. masses --      5.6801                 7.8791                 2.1099
 Frc consts  --      3.7162                 5.2011                 1.4584
 IR Inten    --     23.2894                52.3597                 4.4277

                     43                     44                     45
                      A                      A                      A
 Frequencies --   1112.6574              1134.3088              1149.6962
 Red. masses --      1.5822                 3.8142                 1.6295
 Frc consts  --      1.1540                 2.8914                 1.2690
 IR Inten    --      8.3657               185.1638                21.7392

                     46                     47                     48
                      A                      A                      A
 Frequencies --   1178.4780              1180.7550              1189.5596
 Red. masses --      1.2731                 1.2593                 1.0906
 Frc consts  --      1.0417                 1.0344                 0.9092
 IR Inten    --      1.0930                 1.1953                 0.2486

                     49                     50                     51
                      A                      A                      A
 Frequencies --   1196.5737              1213.7281              1221.0712
 Red. masses --      1.2466                 1.3636                 1.4555
 Frc consts  --      1.0516                 1.1835                 1.2786
 IR Inten    --      5.4642                 2.4083                 5.4281

                     52                     53                     54
                      A                      A                      A
 Frequencies --   1273.5915              1277.1423              1310.7479
 Red. masses --      2.0205                 1.9797                 2.4959
 Frc consts  --      1.9309                 1.9025                 2.5265
 IR Inten    --    124.7090                39.7166                 3.7526

                     55                     56                     57
                      A                      A                      A
 Frequencies --   1322.7554              1336.3155              1353.2945
 Red. masses --      4.3770                 6.6200                 7.3984
 Frc consts  --      4.5122                 6.9651                 7.9831
 IR Inten    --     58.6008                 0.0610                11.8587

                     58                     59                     60
                      A                      A                      A
 Frequencies --   1470.0726              1476.3547              1485.9998
 Red. masses --      1.7946                 1.6025                 1.4449
 Frc consts  --      2.2851                 2.0580                 1.8799
 IR Inten    --     66.6288                33.6431                 9.3113

                     61                     62                     63
                      A                      A                      A
 Frequencies --   1499.6601              1502.8140              1506.6143
 Red. masses --      1.2263                 1.0688                 1.4628
 Frc consts  --      1.6249                 1.4221                 1.9563
 IR Inten    --      1.2304                11.8975                11.3198

                     64                     65                     66
                      A                      A                      A
 Frequencies --   1516.9166              1518.4786              1523.6212
 Red. masses --      1.2711                 1.1107                 1.5229
 Frc consts  --      1.7233                 1.5089                 2.0829
 IR Inten    --     79.5396                 0.8316                16.6710

                     67                     68                     69
                      A                      A                      A
 Frequencies --   1537.9655              1619.1017              1638.8258
 Red. masses --      3.0746                 5.6340                 6.6387
 Frc consts  --      4.2848                 8.7020                10.5050
 IR Inten    --      7.5664                 7.3664                87.3472

                     70                     71                     72
                      A                      A                      A
 Frequencies --   1648.6193              1655.3809              3020.0787
 Red. masses --      6.4291                 7.0598                 1.0349
 Frc consts  --     10.2954                11.3983                 5.5612
 IR Inten    --     13.0810                37.2403                63.4309

                     73                     74                     75
                      A                      A                      A
 Frequencies --   3022.8282              3085.4111              3095.1708
 Red. masses --      1.0365                 1.1055                 1.0999
 Frc consts  --      5.5799                 6.2006                 6.2082
 IR Inten    --     51.9683                33.7209                27.0410

                     76                     77                     78
                      A                      A                      A
 Frequencies --   3149.6772              3153.6182              3188.7470
 Red. masses --      1.1038                 1.1005                 1.0859
 Frc consts  --      6.4514                 6.4486                 6.5055
 IR Inten    --     27.3819                18.8709                 1.5636

                     79                     80                     81
                      A                      A                      A
 Frequencies --   3190.8348              3202.1716              3214.6943
 Red. masses --      1.0880                 1.0908                 1.0948
 Frc consts  --      6.5264                 6.5903                 6.6657
 IR Inten    --     10.2211                15.3113                11.6238

                     82                     83                     84
                      A                      A                      A
 Frequencies --   3217.7812              3221.9740              3229.3363
 Red. masses --      1.0933                 1.0957                 1.0927
 Frc consts  --      6.6697                 6.7015                 6.7137
 IR Inten    --      9.6881                 7.7359                 9.9221

 - Thermochemistry -
 -------------------
 Temperature   298.150 Kelvin.  Pressure   1.00000 Atm.
 Atom     1 has atomic number  6 and mass  12.00000

 Molecular mass:   292.00989 amu.
 Principal axes and moments of inertia in atomic units:
                           1         2         3
     Eigenvalues --  3948.051275001.465406130.04257
           X            0.99433   0.10346   0.02464
           Y           -0.09990   0.98807  -0.11722
           Z           -0.03647   0.11409   0.99280
 This molecule is an asymmetric top.
 Rotational symmetry number  1.
 Warning -- assumption of classical behavior for rotation
           may cause significant error
 Rotational temperatures (Kelvin)      0.02194     0.01732     0.01413
 Rotational constants (GHZ):           0.45712     0.36084     0.29441
 Zero-point vibrational energy     620902.2 (Joules/Mol)
                                  148.39918 (Kcal/Mol)
 Warning -- explicit consideration of  23 degrees of freedom as
           vibrations may cause significant error
 Vibrational temperatures:     35.02    74.97    87.94   108.36   136.98
          (Kelvin)            185.71   212.33   233.34   258.98   288.21
                              327.87   378.22   405.32   425.08   475.38
                              512.47   576.73   630.62   663.34   729.58
                              759.04   817.91   834.44   893.96   957.71
                              964.10  1027.90  1071.28  1090.90  1114.81
                             1134.97  1166.32  1261.99  1275.89  1363.88
                             1383.91  1384.48  1431.82  1472.12  1516.13
                             1522.93  1558.41  1600.87  1632.02  1654.16
                             1695.57  1698.84  1711.51  1721.60  1746.28
                             1756.85  1832.41  1837.52  1885.87  1903.15
                             1922.66  1947.09  2115.11  2124.15  2138.02
                             2157.68  2162.21  2167.68  2182.50  2184.75
                             2192.15  2212.79  2329.53  2357.90  2372.00
                             2381.72  4345.22  4349.18  4439.22  4453.26
                             4531.68  4537.35  4587.90  4590.90  4607.21
                             4625.23  4629.67  4635.70  4646.29

 Zero-point correction=                           0.236489 (Hartree/Particle)
 Thermal correction to Energy=                    0.252322
 Thermal correction to Enthalpy=                  0.253266
 Thermal correction to Gibbs Free Energy=         0.191666
 Sum of electronic and zero-point Energies=          -3263.299806
 Sum of electronic and thermal Energies=             -3263.283973
 Sum of electronic and thermal Enthalpies=           -3263.283029
 Sum of electronic and thermal Free Energies=        -3263.344629

                     E (Thermal)             CV                S
                      KCal/Mol        Cal/Mol-Kelvin    Cal/Mol-Kelvin
 Total                  158.334             58.955            129.647
 Electronic               0.000              0.000              0.000
 Translational            0.889              2.981             42.912
 Rotational               0.889              2.981             33.159
 Vibrational            156.557             52.994             53.575
 Vibration     1          0.593              1.985              6.245
 Vibration     2          0.596              1.977              4.736
 Vibration     3          0.597              1.973              4.421
 Vibration     4          0.599              1.965              4.009
 Vibration     5          0.603              1.953              3.550
 Vibration     6          0.612              1.924              2.960
 Vibration     7          0.617              1.905              2.703
 Vibration     8          0.622              1.889              2.524
 Vibration     9          0.629              1.867              2.328
 Vibration    10          0.638              1.839              2.130
 Vibration    11          0.651              1.799              1.896
 Vibration    12          0.670              1.741              1.643
 Vibration    13          0.681              1.707              1.523
 Vibration    14          0.690              1.682              1.443
 Vibration    15          0.713              1.615              1.258
 Vibration    16          0.732              1.563              1.139
 Vibration    17          0.767              1.468              0.960
 Vibration    18          0.798              1.387              0.832
 Vibration    19          0.819              1.336              0.763
 Vibration    20          0.862              1.234              0.641
 Vibration    21          0.883              1.189              0.593
 Vibration    22          0.924              1.099              0.507
 Vibration    23          0.937              1.075              0.485

 Optimization completed.
    -- Stationary point found.
 Normal termination of Gaussian 16 at Tue Sep 17 10:03:35 2024.

 ----------------------------------------------------------------------
 #p M062X/def2tzvp geom=check guess=read scf(xqc,tight) integral(grid=u
 ltrafine) scrf(SMD, solvent=1,4-Dioxane) polar prop=efg volume
 ----------------------------------------------------------------------

 ---
 spe
 ---
 Structure from the checkpoint file:  "smiles_00036_conf_3.chk"
 Charge =  0 Multiplicity = 1

 SCF Done:  E(RM062X) =  -3265.91832785     A.U. after   12 cycles

  Exact polarizability:     260.906       6.424     214.955      16.007       6.855     176.036
 Approx polarizability:     270.687       3.405     242.241      16.216      14.590     205.961

 Normal termination of Gaussian 16 at Tue Sep 17 12:07:41 2024.
 Gaussian 16:  ES64L-G16RevC.02  7-Dec-2021

 ----------------------------------------------------------------------
 #p M062X/def2tzvp geom=check guess=read scf(xqc,tight) integral(grid=u
 ltrafine) scrf(SMD, solvent=1,4-Dioxane) nmr=giao
 ----------------------------------------------------------------------

 ---
 spe
 ---
 Structure from the checkpoint file:  "smiles_00036_conf_3.chk"
 Charge =  0 Multiplicity = 1

                         Standard orientation:
 ---------------------------------------------------------------------
 Center     Atomic      Atomic             Coordinates (Angstroms)
 Number     Number       Type             X           Y           Z
 ---------------------------------------------------------------------
      1          6           0       -1.427484   -2.963979    1.354241
      2          8           0       -0.827218   -1.680155    1.314087
      3          6           0       -1.548710   -0.651947    0.786979
      4          6           0       -2.929630   -0.691285    0.576359
      5          6           0       -3.576483    0.428648    0.050130
      6          6           0       -2.863234    1.575080   -0.282547
      7          6           0       -1.481812    1.599169   -0.078528
      8          8           0       -0.771432    2.729832   -0.421807
      9          6           0       -0.143587    2.631306   -1.703267
     10          6           0       -0.804598    0.498456    0.459056
     11          6           0        0.663010    0.540806    0.683772
     12          6           0        1.203282    1.403054    1.647716
     13          6           0        2.574525    1.461869    1.882070
     14          6           0        3.441643    0.652698    1.147630
     15          6           0        2.935241   -0.203239    0.171330
     16          6           0        1.561314   -0.244198   -0.049570
     17         35           0        0.905769   -1.367348   -1.451559
     18          1           0       -0.643848   -3.650887    1.675361
     19          1           0       -2.256544   -3.004671    2.071747
     20          1           0       -1.790071   -3.260764    0.362958
     21          1           0       -3.501299   -1.575464    0.828009
     22          1           0       -4.650635    0.396882   -0.104047
     23          1           0       -3.347499    2.450493   -0.699965
     24          1           0        0.505952    3.502610   -1.801843
     25          1           0       -0.893917    2.638706   -2.504407
     26          1           0        0.451309    1.715590   -1.787649
     27          1           0        0.522700    2.030275    2.212918
     28          1           0        2.964876    2.136834    2.636913
     29          1           0        4.511904    0.689266    1.325024
     30          1           0        3.593483   -0.827745   -0.420928
 ---------------------------------------------------------------------

 SCF Done:  E(RM062X) =  -3265.91832785     A.U. after    1 cycles

      1  C    Isotropic =   128.8236   Anisotropy =    77.2682

      2  O    Isotropic =   223.9341   Anisotropy =   117.8012

      3  C    Isotropic =     4.0701   Anisotropy =   163.9607

      4  C    Isotropic =    61.3223   Anisotropy =   183.0648

      5  C    Isotropic =    32.6871   Anisotropy =   218.2910

      6  C    Isotropic =    51.2842   Anisotropy =   172.9673

      7  C    Isotropic =     2.5449   Anisotropy =   163.6352

      8  O    Isotropic =   259.9914   Anisotropy =    86.1129

      9  C    Isotropic =   121.6014   Anisotropy =    90.7203

     10  C    Isotropic =    38.8163   Anisotropy =   161.3992

     11  C    Isotropic =    23.9899   Anisotropy =   196.5214

     12  C    Isotropic =    28.2305   Anisotropy =   205.5054

     13  C    Isotropic =    36.5436   Anisotropy =   216.6032

     14  C    Isotropic =    34.7475   Anisotropy =   210.8699

     15  C    Isotropic =    31.2570   Anisotropy =   182.0833

     16  C    Isotropic =    22.1226   Anisotropy =   136.3009

     17  Br   Isotropic =  2102.4999   Anisotropy =  1161.8347

     18  H    Isotropic =    27.9186   Anisotropy =     9.4681

     19  H    Isotropic =    27.9609   Anisotropy =    10.0622

     20  H    Isotropic =    28.3451   Anisotropy =     8.5066

     21  H    Isotropic =    24.3759   Anisotropy =     8.1955

     22  H    Isotropic =    23.6676   Anisotropy =     5.1341

     23  H    Isotropic =    24.2790   Anisotropy =     6.4381

     24  H    Isotropic =    28.5591   Anisotropy =     9.4218

     25  H    Isotropic =    28.5358   Anisotropy =     8.8942

     26  H    Isotropic =    28.9144   Anisotropy =     5.9422

     27  H    Isotropic =    23.6107   Anisotropy =    10.5012

     28  H    Isotropic =    23.6501   Anisotropy =     5.2938

     29  H    Isotropic =    23.7337   Anisotropy =     5.0721

     30  H    Isotropic =    23.4178   Anisotropy =    11.0181

 The electronic state is 1-A.
 Alpha  occ. eigenvalues -- -485.37114 -63.35571 -57.17516 -57.17286 -57.17275
 Alpha  occ. eigenvalues --  -19.65531 -19.63893 -10.60836 -10.60060 -10.60007
 Alpha  occ. eigenvalues --  -10.58416 -10.57712 -10.56546 -10.55228 -10.55118
 Alpha  occ. eigenvalues --  -10.54918 -10.54832 -10.54758 -10.54561 -10.53949
 Alpha  occ. eigenvalues --  -10.53494  -9.02194  -6.84592  -6.83741  -6.83703
 Alpha  occ. eigenvalues --   -2.87970  -2.87665  -2.87626  -2.86831  -2.86831
 Alpha  occ. eigenvalues --   -1.19085  -1.17311  -0.98382  -0.95458  -0.89597
 Alpha  occ. eigenvalues --   -0.88144  -0.84851  -0.83287  -0.81137  -0.78586
 Alpha  occ. eigenvalues --   -0.77451  -0.71313  -0.68834  -0.66851  -0.66357
 Alpha  occ. eigenvalues --   -0.61245  -0.58792  -0.57884  -0.55395  -0.54989
 Alpha  occ. eigenvalues --   -0.54715  -0.53591  -0.52608  -0.51859  -0.51647
 Alpha  occ. eigenvalues --   -0.49294  -0.47956  -0.47716  -0.46135  -0.44984
 Alpha  occ. eigenvalues --   -0.44443  -0.43972  -0.42018  -0.41496  -0.40510
 Alpha  occ. eigenvalues --   -0.39419  -0.38683  -0.37172  -0.34893  -0.34438
 Alpha  occ. eigenvalues --   -0.31944  -0.29798  -0.29033  -0.27743
 Alpha virt. eigenvalues --    0.00137   0.01377   0.02903   0.03606   0.04303
 Alpha virt. eigenvalues --    0.07917   0.08820   0.09591   0.10211   0.11026
 Alpha virt. eigenvalues --    0.12185   0.12708   0.13096   0.13794   0.14070

 Mulliken charges:
               1
     1  C   -0.320834
     2  O   -0.289308
     3  C    0.256876
     4  C   -0.263375
     5  C   -0.144355
     6  C   -0.250476
     7  C    0.233453
     8  O   -0.332707
     9  C   -0.243009
    10  C   -0.041665
    11  C    0.009197
    12  C   -0.132948
    13  C   -0.171140
    14  C   -0.152340
    15  C   -0.164368
    16  C    0.007423
    17  Br  -0.112531
    18  H    0.164811
    19  H    0.156486
    20  H    0.166225
    21  H    0.177116
    22  H    0.162905
    23  H    0.164408
    24  H    0.155346
    25  H    0.147891
    26  H    0.138787
    27  H    0.173532
    28  H    0.164269
    29  H    0.165107
    30  H    0.175224
 Sum of Mulliken charges =  -0.00000

 Dipole moment (field-independent basis, Debye):
    X=             -0.2853    Y=             -0.9582    Z=              0.3129  Tot=              1.0476
 Quadrupole moment (field-independent basis, Debye-Ang):
   XX=            -96.9048   YY=           -106.1567   ZZ=           -110.6176
   XY=              6.8413   XZ=              2.3167   YZ=             -3.8344

 Normal termination of Gaussian 16 at Tue Sep 17 12:53:36 2024.
