 Gaussian 16, Revision C.02,

 ----------------------------------------------------------------------
 #p B3LYP/6-31G(d,p) EmpiricalDispersion=GD3BJ opt freq scf(xqc,tight)
 integral(grid=ultrafine)
 ----------------------------------------------------------------------

 ----------------------------------
 opt-freq conformers_unique/conf_af
 ----------------------------------
 Symbolic Z-matrix:
 Charge =  0 Multiplicity = 1

 SCF Done:  E(RB3LYP) =  -3263.53042608     A.U. after   14 cycles
 SCF Done:  E(RB3LYP) =  -3263.53211422     A.U. after   12 cycles
 SCF Done:  E(RB3LYP) =  -3263.53229489     A.U. after   12 cycles
 SCF Done:  E(RB3LYP) =  -3263.53250490     A.U. after   11 cycles
 SCF Done:  E(RB3LYP) =  -3263.53252578     A.U. after   10 cycles
 SCF Done:  E(RB3LYP) =  -3263.53253882     A.U. after   10 cycles
 SCF Done:  E(RB3LYP) =  -3263.53254487     A.U. after   10 cycles
 SCF Done:  E(RB3LYP) =  -3263.53254737     A.U. after    9 cycles
 SCF Done:  E(RB3LYP) =  -3263.53254801     A.U. after    8 cycles
 Optimization completed.
    -- Stationary point found.
 Normal termination of Gaussian 16 at Tue Sep 17 09:53:58 2024.

 ----------------------------------------------------------------------
 #P Geom=AllCheck Guess=TCheck SCRF=Check GenChk RB3LYP/6-31G(d,p) Freq
 ----------------------------------------------------------------------

 Structure from the checkpoint file:  "smiles_00036_conf_5.chk"
 ----------------------------------
 opt-freq conformers_unique/conf_af
 ----------------------------------
 Charge =  0 Multiplicity = 1

 SCF Done:  E(RB3LYP) =  -3263.53254801     A.U. after    1 cycles

                      1                      2                      3
                      A                      A                      A
 Frequencies --     30.8212                59.7323                64.8131
 Red. masses --      6.2094                 5.2178                 3.2644
 Frc consts  --      0.0035                 0.0110                 0.0081
 IR Inten    --      0.2664                 0.4496                 1.9402

                      4                      5                      6
                      A                      A                      A
 Frequencies --     68.2902                87.9377               117.8505
 Red. masses --      3.8539                 3.2732                 5.0268
 Frc consts  --      0.0106                 0.0149                 0.0411
 IR Inten    --      2.2605                 3.9463                 1.8917

                      7                      8                      9
                      A                      A                      A
 Frequencies --    143.4851               164.7546               180.9541
 Red. masses --      4.4343                 1.2587                 3.2477
 Frc consts  --      0.0538                 0.0201                 0.0627
 IR Inten    --      0.2150                 0.3323                 1.1889

                     10                     11                     12
                      A                      A                      A
 Frequencies --    203.6260               241.4765               265.6594
 Red. masses --      2.8908                 2.1042                 4.7340
 Frc consts  --      0.0706                 0.0723                 0.1968
 IR Inten    --      1.0392                 0.6061                 0.1414

                     13                     14                     15
                      A                      A                      A
 Frequencies --    278.0891               292.3044               333.7999
 Red. masses --      3.4027                 2.2042                 5.1596
 Frc consts  --      0.1550                 0.1110                 0.3387
 IR Inten    --      0.9491                 1.0919                 0.2421

                     16                     17                     18
                      A                      A                      A
 Frequencies --    356.9326               398.5982               439.4615
 Red. masses --      5.3280                 6.0449                 4.7309
 Frc consts  --      0.3999                 0.5659                 0.5383
 IR Inten    --      6.4012                 2.5618                 4.1165

                     19                     20                     21
                      A                      A                      A
 Frequencies --    461.4459               503.5846               529.3403
 Red. masses --      3.4846                 4.6571                 6.0843
 Frc consts  --      0.4372                 0.6958                 1.0045
 IR Inten    --      2.0023                 3.8848                 4.8650

                     22                     23                     24
                      A                      A                      A
 Frequencies --    567.6855               579.7075               620.5190
 Red. masses --      4.6149                 4.7546                 4.5356
 Frc consts  --      0.8762                 0.9414                 1.0289
 IR Inten    --      2.4221                 9.3079                 2.1918

                     25                     26                     27
                      A                      A                      A
 Frequencies --    659.5593               672.6868               715.4924
 Red. masses --      4.7315                 5.8435                 6.1970
 Frc consts  --      1.2127                 1.5579                 1.8691
 IR Inten    --      3.8492                 4.4900                 7.5875

                     28                     29                     30
                      A                      A                      A
 Frequencies --    744.8505               758.8705               774.9314
 Red. masses --      2.0327                 2.1471                 1.4263
 Frc consts  --      0.6644                 0.7285                 0.5047
 IR Inten    --     12.7208                19.6267                24.1702

                     31                     32                     33
                      A                      A                      A
 Frequencies --    788.4885               808.7932               876.8767
 Red. masses --      5.3391                 3.0739                 1.4709
 Frc consts  --      1.9557                 1.1847                 0.6663
 IR Inten    --      0.1741                26.9741                 0.1919

                     34                     35                     36
                      A                      A                      A
 Frequencies --    887.3156               946.5943               962.0076
 Red. masses --      1.4165                 4.2080                 1.4594
 Frc consts  --      0.6571                 2.2215                 0.7958
 IR Inten    --      0.0769                 9.7468                 1.7667

                     37                     38                     39
                      A                      A                      A
 Frequencies --    962.8205               994.6244              1024.9652
 Red. masses --      1.2566                 1.2951                 7.4991
 Frc consts  --      0.6864                 0.7549                 4.6417
 IR Inten    --      0.2784                 0.0788                19.9857

                     40                     41                     42
                      A                      A                      A
 Frequencies --   1054.3590              1066.7019              1084.9701
 Red. masses --      5.7848                 7.4778                 2.1292
 Frc consts  --      3.7889                 5.0131                 1.4767
 IR Inten    --     15.0100                42.8508                 8.1512

                     43                     44                     45
                      A                      A                      A
 Frequencies --   1114.4563              1136.6584              1150.1308
 Red. masses --      1.6248                 3.4664                 1.6724
 Frc consts  --      1.1890                 2.6387                 1.3034
 IR Inten    --     14.5589               189.2726                29.3176

                     46                     47                     48
                      A                      A                      A
 Frequencies --   1179.8400              1180.6030              1189.3580
 Red. masses --      1.2735                 1.2535                 1.0889
 Frc consts  --      1.0445                 1.0294                 0.9075
 IR Inten    --      0.9178                 0.6270                 0.2936

                     49                     50                     51
                      A                      A                      A
 Frequencies --   1197.5470              1213.4776              1219.5730
 Red. masses --      1.2602                 1.3609                 1.4438
 Frc consts  --      1.0648                 1.1807                 1.2652
 IR Inten    --      7.0352                 3.1648                 7.9331

                     52                     53                     54
                      A                      A                      A
 Frequencies --   1272.1674              1281.1222              1305.3645
 Red. masses --      1.9850                 2.0746                 2.3905
 Frc consts  --      1.8928                 2.0061                 2.3999
 IR Inten    --    108.4133                79.7892                 9.3074

                     55                     56                     57
                      A                      A                      A
 Frequencies --   1321.3485              1336.1036              1351.4639
 Red. masses --      4.8983                 6.2502                 7.5705
 Frc consts  --      5.0388                 6.5739                 8.1467
 IR Inten    --     49.4347                 1.4730                12.1074

                     58                     59                     60
                      A                      A                      A
 Frequencies --   1467.7549              1476.1834              1486.6752
 Red. masses --      1.7883                 1.5491                 1.4064
 Frc consts  --      2.2699                 1.9889                 1.8314
 IR Inten    --     62.5723                33.5598                15.4392

                     61                     62                     63
                      A                      A                      A
 Frequencies --   1500.8065              1503.5638              1505.1541
 Red. masses --      1.1269                 1.7107                 1.0649
 Frc consts  --      1.4956                 2.2787                 1.4214
 IR Inten    --      1.2921                27.6430                 7.5315

                     64                     65                     66
                      A                      A                      A
 Frequencies --   1517.4673              1519.2412              1522.4056
 Red. masses --      1.4572                 1.1062                 1.3758
 Frc consts  --      1.9770                 1.5044                 1.8787
 IR Inten    --     83.5822                 9.8702                 8.2109

                     67                     68                     69
                      A                      A                      A
 Frequencies --   1537.8963              1618.6829              1638.5428
 Red. masses --      2.9147                 5.6891                 6.6516
 Frc consts  --      4.0616                 8.7824                10.5219
 IR Inten    --      4.5971                 8.3607                89.0709

                     70                     71                     72
                      A                      A                      A
 Frequencies --   1647.9142              1654.6744              3017.4076
 Red. masses --      6.2673                 6.9921                 1.0348
 Frc consts  --     10.0277                11.2793                 5.5509
 IR Inten    --     16.0411                35.1534                67.1669

                     73                     74                     75
                      A                      A                      A
 Frequencies --   3019.3912              3080.1867              3088.6663
 Red. masses --      1.0355                 1.1059                 1.1026
 Frc consts  --      5.5623                 6.1822                 6.1974
 IR Inten    --     56.9605                36.0283                31.4661

                     76                     77                     78
                      A                      A                      A
 Frequencies --   3145.8450              3152.4628              3186.8525
 Red. masses --      1.1019                 1.1001                 1.0855
 Frc consts  --      6.4249                 6.4417                 6.4956
 IR Inten    --     26.4409                19.9111                 0.5692

                     79                     80                     81
                      A                      A                      A
 Frequencies --   3191.3427              3198.4061              3209.9784
 Red. masses --      1.0881                 1.0903                 1.0957
 Frc consts  --      6.5293                 6.5714                 6.6517
 IR Inten    --     10.5233                14.2151                17.3808

                     82                     83                     84
                      A                      A                      A
 Frequencies --   3218.9651              3221.7103              3232.5305
 Red. masses --      1.0935                 1.0953                 1.0922
 Frc consts  --      6.6758                 6.6979                 6.7244
 IR Inten    --      8.7939                 7.4005                10.3021

 - Thermochemistry -
 -------------------
 Temperature   298.150 Kelvin.  Pressure   1.00000 Atm.
 Atom     1 has atomic number  6 and mass  12.00000

 Molecular mass:   292.00989 amu.
 Principal axes and moments of inertia in atomic units:
                           1         2         3
     Eigenvalues --  4009.043455415.795596258.21845
           X            0.99738  -0.04410  -0.05734
           Y            0.03613   0.99044  -0.13315
           Z            0.06266   0.13073   0.98944
 This molecule is an asymmetric top.
 Rotational symmetry number  1.
 Warning -- assumption of classical behavior for rotation
           may cause significant error
 Rotational temperatures (Kelvin)      0.02160     0.01599     0.01384
 Rotational constants (GHZ):           0.45017     0.33324     0.28838
 Zero-point vibrational energy     620776.3 (Joules/Mol)
                                  148.36911 (Kcal/Mol)
 Warning -- explicit consideration of  24 degrees of freedom as
           vibrations may cause significant error
 Vibrational temperatures:     44.34    85.94    93.25    98.25   126.52
          (Kelvin)            169.56   206.44   237.05   260.35   292.97
                              347.43   382.22   400.11   420.56   480.26
                              513.55   573.49   632.29   663.92   724.55
                              761.60   816.77   834.07   892.79   948.96
                              967.85  1029.43  1071.67  1091.85  1114.95
                             1134.46  1163.67  1261.63  1276.65  1361.94
                             1384.11  1385.28  1431.04  1474.70  1516.99
                             1534.75  1561.03  1603.45  1635.40  1654.78
                             1697.53  1698.62  1711.22  1723.00  1745.92
                             1754.69  1830.37  1843.25  1878.13  1901.13
                             1922.36  1944.46  2111.77  2123.90  2138.99
                             2159.33  2163.29  2165.58  2183.30  2185.85
                             2190.40  2212.69  2328.92  2357.50  2370.98
                             2380.71  4341.38  4344.23  4431.70  4443.90
                             4526.17  4535.69  4585.17  4591.63  4601.79
                             4618.44  4631.37  4635.32  4650.89

 Zero-point correction=                           0.236441 (Hartree/Particle)
 Thermal correction to Energy=                    0.252265
 Thermal correction to Enthalpy=                  0.253209
 Thermal correction to Gibbs Free Energy=         0.191762
 Sum of electronic and zero-point Energies=          -3263.296107
 Sum of electronic and thermal Energies=             -3263.280283
 Sum of electronic and thermal Enthalpies=           -3263.279339
 Sum of electronic and thermal Free Energies=        -3263.340786

                     E (Thermal)             CV                S
                      KCal/Mol        Cal/Mol-Kelvin    Cal/Mol-Kelvin
 Total                  158.299             58.946            129.325
 Electronic               0.000              0.000              0.000
 Translational            0.889              2.981             42.912
 Rotational               0.889              2.981             33.274
 Vibrational            156.521             52.984             53.139
 Vibration     1          0.594              1.984              5.776
 Vibration     2          0.597              1.974              4.466
 Vibration     3          0.597              1.971              4.305
 Vibration     4          0.598              1.969              4.202
 Vibration     5          0.601              1.958              3.705
 Vibration     6          0.608              1.934              3.135
 Vibration     7          0.616              1.910              2.757
 Vibration     8          0.623              1.886              2.494
 Vibration     9          0.630              1.866              2.319
 Vibration    10          0.639              1.835              2.100
 Vibration    11          0.658              1.777              1.792
 Vibration    12          0.671              1.736              1.624
 Vibration    13          0.679              1.714              1.545
 Vibration    14          0.688              1.688              1.461
 Vibration    15          0.715              1.608              1.242
 Vibration    16          0.732              1.561              1.135
 Vibration    17          0.765              1.473              0.968
 Vibration    18          0.799              1.384              0.828
 Vibration    19          0.819              1.336              0.762
 Vibration    20          0.859              1.242              0.649
 Vibration    21          0.884              1.185              0.589
 Vibration    22          0.924              1.101              0.509
 Vibration    23          0.936              1.075              0.486
 Vibration    24          0.981              0.989              0.416

 Optimization completed.
    -- Stationary point found.
 Normal termination of Gaussian 16 at Tue Sep 17 09:59:52 2024.

 ----------------------------------------------------------------------
 #p M062X/def2tzvp geom=check guess=read scf(xqc,tight) integral(grid=u
 ltrafine) scrf(SMD, solvent=1,4-Dioxane) polar prop=efg volume
 ----------------------------------------------------------------------

 ---
 spe
 ---
 Structure from the checkpoint file:  "smiles_00036_conf_5.chk"
 Charge =  0 Multiplicity = 1

 SCF Done:  E(RM062X) =  -3265.91655078     A.U. after   12 cycles

  Exact polarizability:     251.832     -19.404     223.304     -12.570      10.861     177.793
 Approx polarizability:     262.789     -14.995     250.721      -7.775      18.054     204.507

 Normal termination of Gaussian 16 at Tue Sep 17 12:02:21 2024.
 Gaussian 16:  ES64L-G16RevC.02  7-Dec-2021

 ----------------------------------------------------------------------
 #p M062X/def2tzvp geom=check guess=read scf(xqc,tight) integral(grid=u
 ltrafine) scrf(SMD, solvent=1,4-Dioxane) nmr=giao
 ----------------------------------------------------------------------

 ---
 spe
 ---
 Structure from the checkpoint file:  "smiles_00036_conf_5.chk"
 Charge =  0 Multiplicity = 1

                         Standard orientation:
 ---------------------------------------------------------------------
 Center     Atomic      Atomic             Coordinates (Angstroms)
 Number     Number       Type             X           Y           Z
 ---------------------------------------------------------------------
      1          6           0        2.643494    2.850052   -1.127437
      2          8           0        1.620039    2.067066   -0.536698
      3          6           0        1.917127    0.785668   -0.173829
      4          6           0        3.183865    0.209326   -0.314030
      5          6           0        3.382283   -1.116472    0.074033
      6          6           0        2.340588   -1.867287    0.606829
      7          6           0        1.080374   -1.283028    0.743957
      8          8           0        0.048010   -2.052675    1.232661
      9          6           0       -0.259267   -1.827565    2.607526
     10          6           0        0.843888    0.043116    0.358418
     11          6           0       -0.504567    0.652677    0.493826
     12          6           0       -0.718949    1.688311    1.415694
     13          6           0       -1.975439    2.261460    1.589249
     14          6           0       -3.054919    1.805594    0.831880
     15          6           0       -2.868822    0.788660   -0.101595
     16          6           0       -1.602671    0.229317   -0.266223
     17         35           0       -1.387144   -1.125016   -1.592444
     18          1           0        3.012921    2.396038   -2.055217
     19          1           0        2.188719    3.814924   -1.354169
     20          1           0        3.486534    2.999307   -0.440941
     21          1           0        4.007166    0.775545   -0.729623
     22          1           0        4.365717   -1.561371   -0.041953
     23          1           0        2.473596   -2.899586    0.909431
     24          1           0       -0.586321   -0.796489    2.782513
     25          1           0        0.608015   -2.044117    3.244634
     26          1           0       -1.073119   -2.510515    2.857046
     27          1           0        0.126343    2.036988    1.999758
     28          1           0       -2.111851    3.058650    2.312977
     29          1           0       -4.040752    2.241420    0.960416
     30          1           0       -3.693224    0.430658   -0.706822
 ---------------------------------------------------------------------

 SCF Done:  E(RM062X) =  -3265.91655078     A.U. after    1 cycles

      1  C    Isotropic =   129.4683   Anisotropy =    75.8590

      2  O    Isotropic =   222.9877   Anisotropy =   111.3433

      3  C    Isotropic =     5.9232   Anisotropy =   160.9272

      4  C    Isotropic =    62.2173   Anisotropy =   181.0287

      5  C    Isotropic =    32.3200   Anisotropy =   217.6610

      6  C    Isotropic =    51.1382   Anisotropy =   171.6099

      7  C    Isotropic =     1.5805   Anisotropy =   166.5180

      8  O    Isotropic =   255.8009   Anisotropy =    99.8907

      9  C    Isotropic =   122.7776   Anisotropy =    91.9025

     10  C    Isotropic =    39.3862   Anisotropy =   161.2383

     11  C    Isotropic =    24.3381   Anisotropy =   196.4162

     12  C    Isotropic =    27.9056   Anisotropy =   207.3598

     13  C    Isotropic =    37.7042   Anisotropy =   214.9797

     14  C    Isotropic =    34.7969   Anisotropy =   210.5356

     15  C    Isotropic =    30.3739   Anisotropy =   183.8599

     16  C    Isotropic =    21.7686   Anisotropy =   139.1918

     17  Br   Isotropic =  2084.3859   Anisotropy =  1196.3693

     18  H    Isotropic =    28.3016   Anisotropy =     9.3018

     19  H    Isotropic =    27.9726   Anisotropy =     9.3342

     20  H    Isotropic =    28.1866   Anisotropy =     9.4622

     21  H    Isotropic =    24.4128   Anisotropy =     7.6690

     22  H    Isotropic =    23.6342   Anisotropy =     5.2311

     23  H    Isotropic =    24.3148   Anisotropy =     6.8260

     24  H    Isotropic =    28.8661   Anisotropy =     7.1244

     25  H    Isotropic =    28.6748   Anisotropy =     9.8402

     26  H    Isotropic =    28.4378   Anisotropy =     9.9188

     27  H    Isotropic =    23.5855   Anisotropy =    10.2712

     28  H    Isotropic =    23.6855   Anisotropy =     5.4248

     29  H    Isotropic =    23.6919   Anisotropy =     5.1026

     30  H    Isotropic =    23.4416   Anisotropy =    10.7433

 The electronic state is 1-A.
 Alpha  occ. eigenvalues -- -485.36534 -63.34997 -57.16945 -57.16710 -57.16699
 Alpha  occ. eigenvalues --  -19.65780 -19.63797 -10.60991 -10.59969 -10.59900
 Alpha  occ. eigenvalues --  -10.58613 -10.57705 -10.56507 -10.55151 -10.55095
 Alpha  occ. eigenvalues --  -10.54892 -10.54873 -10.54726 -10.54581 -10.53969
 Alpha  occ. eigenvalues --  -10.53389  -9.01627  -6.84038  -6.83164  -6.83131
 Alpha  occ. eigenvalues --   -2.87416  -2.87102  -2.87066  -2.86251  -2.86251
 Alpha  occ. eigenvalues --   -1.19204  -1.17290  -0.98275  -0.95443  -0.89356
 Alpha  occ. eigenvalues --   -0.88143  -0.84878  -0.83280  -0.81009  -0.78713
 Alpha  occ. eigenvalues --   -0.77365  -0.71323  -0.68636  -0.67090  -0.66163
 Alpha  occ. eigenvalues --   -0.61312  -0.58753  -0.57908  -0.55228  -0.55137
 Alpha  occ. eigenvalues --   -0.54789  -0.53659  -0.52578  -0.51852  -0.51714
 Alpha  occ. eigenvalues --   -0.49232  -0.47901  -0.47722  -0.46059  -0.45088
 Alpha  occ. eigenvalues --   -0.44428  -0.43768  -0.42126  -0.41393  -0.40386
 Alpha  occ. eigenvalues --   -0.39297  -0.38636  -0.37323  -0.34953  -0.33990
 Alpha  occ. eigenvalues --   -0.31650  -0.29630  -0.28821  -0.27751
 Alpha virt. eigenvalues --    0.00121   0.01380   0.03060   0.03632   0.04701
 Alpha virt. eigenvalues --    0.07829   0.08504   0.09548   0.10297   0.11349
 Alpha virt. eigenvalues --    0.11820   0.12693   0.13183   0.13579   0.14234

 Mulliken charges:
               1
     1  C   -0.327747
     2  O   -0.280514
     3  C    0.309554
     4  C   -0.296204
     5  C   -0.142560
     6  C   -0.247091
     7  C    0.224005
     8  O   -0.331678
     9  C   -0.255936
    10  C   -0.033874
    11  C   -0.014999
    12  C   -0.169866
    13  C   -0.152020
    14  C   -0.154289
    15  C   -0.172554
    16  C    0.024944
    17  Br  -0.099872
    18  H    0.163244
    19  H    0.163742
    20  H    0.157386
    21  H    0.178480
    22  H    0.162774
    23  H    0.164146
    24  H    0.151774
    25  H    0.145979
    26  H    0.155591
    27  H    0.175821
    28  H    0.163842
    29  H    0.165027
    30  H    0.172894
 Sum of Mulliken charges =  -0.00000

 Dipole moment (field-independent basis, Debye):
    X=              1.7338    Y=              2.6326    Z=              1.8500  Tot=              3.6550
 Quadrupole moment (field-independent basis, Debye-Ang):
   XX=            -95.4587   YY=           -105.4853   ZZ=           -107.9215
   XY=              0.0148   XZ=             -5.6943   YZ=             -2.3518

 Normal termination of Gaussian 16 at Tue Sep 17 12:47:59 2024.
