 Gaussian 16, Revision C.02,

 ----------------------------------------------------------------------
 #p B3LYP/6-31G(d,p) EmpiricalDispersion=GD3BJ opt freq scf(xqc,tight)
 integral(grid=ultrafine)
 ----------------------------------------------------------------------

 ----------------------------------
 opt-freq conformers_unique/conf_ae
 ----------------------------------
 Symbolic Z-matrix:
 Charge =  0 Multiplicity = 1

 SCF Done:  E(RB3LYP) =  -3263.53275933     A.U. after   14 cycles
 SCF Done:  E(RB3LYP) =  -3263.53504580     A.U. after   14 cycles
 SCF Done:  E(RB3LYP) =  -3263.53592851     A.U. after   12 cycles
 SCF Done:  E(RB3LYP) =  -3263.53611142     A.U. after   11 cycles
 SCF Done:  E(RB3LYP) =  -3263.53619444     A.U. after   11 cycles
 SCF Done:  E(RB3LYP) =  -3263.53624099     A.U. after   10 cycles
 SCF Done:  E(RB3LYP) =  -3263.53627309     A.U. after   11 cycles
 SCF Done:  E(RB3LYP) =  -3263.53628057     A.U. after    9 cycles
 SCF Done:  E(RB3LYP) =  -3263.53628320     A.U. after    9 cycles
 SCF Done:  E(RB3LYP) =  -3263.53628763     A.U. after    9 cycles
 SCF Done:  E(RB3LYP) =  -3263.53629289     A.U. after   10 cycles
 SCF Done:  E(RB3LYP) =  -3263.53629490     A.U. after    9 cycles
 SCF Done:  E(RB3LYP) =  -3263.53629507     A.U. after    7 cycles
 Optimization completed.
    -- Stationary point found.
 Normal termination of Gaussian 16 at Tue Sep 17 09:56:29 2024.

 ----------------------------------------------------------------------
 #P Geom=AllCheck Guess=TCheck SCRF=Check GenChk RB3LYP/6-31G(d,p) Freq
 ----------------------------------------------------------------------

 Structure from the checkpoint file:  "smiles_00036_conf_4.chk"
 ----------------------------------
 opt-freq conformers_unique/conf_ae
 ----------------------------------
 Charge =  0 Multiplicity = 1

 SCF Done:  E(RB3LYP) =  -3263.53629507     A.U. after    1 cycles

                      1                      2                      3
                      A                      A                      A
 Frequencies --     24.3599                52.1074                61.1140
 Red. masses --      4.3486                 4.9687                 4.4931
 Frc consts  --      0.0015                 0.0079                 0.0099
 IR Inten    --      1.9403                 1.6035                 0.2097

                      4                      5                      6
                      A                      A                      A
 Frequencies --     75.3106                95.1365               129.0715
 Red. masses --      4.5149                 3.0023                 5.2636
 Frc consts  --      0.0151                 0.0160                 0.0517
 IR Inten    --      0.9754                 3.6374                 1.1735

                      7                      8                      9
                      A                      A                      A
 Frequencies --    147.5840               162.2022               179.9841
 Red. masses --      5.2415                 1.0946                 2.6506
 Frc consts  --      0.0673                 0.0170                 0.0506
 IR Inten    --      2.8417                 0.0017                 1.0698

                     10                     11                     12
                      A                      A                      A
 Frequencies --    200.3082               227.8883               262.8690
 Red. masses --      3.9448                 1.5976                 4.5849
 Frc consts  --      0.0933                 0.0489                 0.1867
 IR Inten    --      2.2875                 0.6277                 0.0781

                     13                     14                     15
                      A                      A                      A
 Frequencies --    281.7352               295.4374               330.4155
 Red. masses --      2.8110                 5.0734                 4.7826
 Frc consts  --      0.1315                 0.2609                 0.3076
 IR Inten    --      0.9299                 1.8355                 0.4006

                     16                     17                     18
                      A                      A                      A
 Frequencies --    356.1857               400.8553               438.2961
 Red. masses --      5.4688                 6.2386                 4.6768
 Frc consts  --      0.4088                 0.5906                 0.5293
 IR Inten    --      5.4717                 5.9653                 1.4904

                     19                     20                     21
                      A                      A                      A
 Frequencies --    461.0490               507.0852               527.5502
 Red. masses --      3.5208                 4.6348                 6.1945
 Frc consts  --      0.4409                 0.7022                 1.0157
 IR Inten    --      2.4402                 2.5842                 3.5784

                     22                     23                     24
                      A                      A                      A
 Frequencies --    568.4719               579.9637               621.3270
 Red. masses --      4.6258                 4.6443                 4.7661
 Frc consts  --      0.8808                 0.9204                 1.0841
 IR Inten    --      3.9929                 7.9703                 3.1026

                     25                     26                     27
                      A                      A                      A
 Frequencies --    665.6364               670.0845               714.4234
 Red. masses --      4.4636                 5.9149                 6.4835
 Frc consts  --      1.1652                 1.5648                 1.9497
 IR Inten    --      4.2510                 5.2035                 8.1088

                     28                     29                     30
                      A                      A                      A
 Frequencies --    744.5672               758.2180               774.8355
 Red. masses --      2.1791                 1.9430                 1.4216
 Frc consts  --      0.7118                 0.6581                 0.5029
 IR Inten    --      8.2851                23.6110                23.7655

                     31                     32                     33
                      A                      A                      A
 Frequencies --    788.8496               810.6308               877.1250
 Red. masses --      5.6464                 3.1297                 1.4755
 Frc consts  --      2.0702                 1.2117                 0.6688
 IR Inten    --      1.6332                24.8176                 0.2488

                     34                     35                     36
                      A                      A                      A
 Frequencies --    886.7889               947.9627               961.8679
 Red. masses --      1.4097                 3.9839                 1.4891
 Frc consts  --      0.6532                 2.1093                 0.8117
 IR Inten    --      0.0918                 9.4650                 2.0526

                     37                     38                     39
                      A                      A                      A
 Frequencies --    962.2604               995.1672              1023.1811
 Red. masses --      1.2556                 1.2963                 7.5148
 Frc consts  --      0.6850                 0.7564                 4.6352
 IR Inten    --      0.3903                 0.0530                 9.8489

                     40                     41                     42
                      A                      A                      A
 Frequencies --   1053.7663              1058.6113              1083.1476
 Red. masses --      5.6801                 7.8794                 2.1099
 Frc consts  --      3.7162                 5.2025                 1.4584
 IR Inten    --     23.2850                52.3092                 4.4247

                     43                     44                     45
                      A                      A                      A
 Frequencies --   1112.6512              1134.3132              1149.6998
 Red. masses --      1.5822                 3.8139                 1.6296
 Frc consts  --      1.1540                 2.8913                 1.2691
 IR Inten    --      8.3799               185.1898                21.7680

                     46                     47                     48
                      A                      A                      A
 Frequencies --   1178.4749              1180.7960              1189.5615
 Red. masses --      1.2731                 1.2592                 1.0906
 Frc consts  --      1.0417                 1.0345                 0.9092
 IR Inten    --      1.0944                 1.1938                 0.2488

                     49                     50                     51
                      A                      A                      A
 Frequencies --   1196.5754              1213.7277              1221.0968
 Red. masses --      1.2468                 1.3635                 1.4554
 Frc consts  --      1.0518                 1.1834                 1.2786
 IR Inten    --      5.4760                 2.4017                 5.4304

                     52                     53                     54
                      A                      A                      A
 Frequencies --   1273.5774              1277.1483              1310.7524
 Red. masses --      2.0217                 1.9783                 2.4971
 Frc consts  --      1.9320                 1.9012                 2.5277
 IR Inten    --    125.1630                39.2642                 3.7571

                     55                     56                     57
                      A                      A                      A
 Frequencies --   1322.7391              1336.3204              1353.2822
 Red. masses --      4.3761                 6.6169                 7.4016
 Frc consts  --      4.5111                 6.9618                 7.9864
 IR Inten    --     58.6324                 0.0616                11.8250

                     58                     59                     60
                      A                      A                      A
 Frequencies --   1470.0758              1476.3664              1486.0083
 Red. masses --      1.7954                 1.6023                 1.4452
 Frc consts  --      2.2861                 2.0577                 1.8803
 IR Inten    --     66.5959                33.7270                 9.2999

                     61                     62                     63
                      A                      A                      A
 Frequencies --   1499.6642              1502.8113              1506.6189
 Red. masses --      1.2261                 1.0686                 1.4629
 Frc consts  --      1.6246                 1.4219                 1.9565
 IR Inten    --      1.2230                11.9096                11.3128

                     64                     65                     66
                      A                      A                      A
 Frequencies --   1516.9197              1518.4892              1523.6293
 Red. masses --      1.2716                 1.1109                 1.5215
 Frc consts  --      1.7240                 1.5092                 2.0810
 IR Inten    --     79.5571                 0.8427                16.5822

                     67                     68                     69
                      A                      A                      A
 Frequencies --   1537.9725              1619.1001              1638.8206
 Red. masses --      3.0742                 5.6339                 6.6384
 Frc consts  --      4.2843                 8.7017                10.5045
 IR Inten    --      7.5683                 7.3701                87.2973

                     70                     71                     72
                      A                      A                      A
 Frequencies --   1648.6226              1655.3898              3020.0717
 Red. masses --      6.4291                 7.0610                 1.0349
 Frc consts  --     10.2955                11.4003                 5.5612
 IR Inten    --     13.0611                37.2695                63.5272

                     73                     74                     75
                      A                      A                      A
 Frequencies --   3022.7475              3085.4053              3095.0737
 Red. masses --      1.0365                 1.1055                 1.0999
 Frc consts  --      5.5797                 6.2006                 6.2077
 IR Inten    --     51.8883                33.7170                27.0519

                     76                     77                     78
                      A                      A                      A
 Frequencies --   3149.6303              3153.6114              3188.7430
 Red. masses --      1.1037                 1.1005                 1.0859
 Frc consts  --      6.4512                 6.4485                 6.5054
 IR Inten    --     27.3984                18.8745                 1.5637

                     79                     80                     81
                      A                      A                      A
 Frequencies --   3190.8297              3202.1671              3214.6904
 Red. masses --      1.0880                 1.0908                 1.0948
 Frc consts  --      6.5264                 6.5902                 6.6657
 IR Inten    --     10.2287                15.3106                11.6262

                     82                     83                     84
                      A                      A                      A
 Frequencies --   3217.8084              3221.9749              3229.3449
 Red. masses --      1.0933                 1.0957                 1.0927
 Frc consts  --      6.6698                 6.7014                 6.7138
 IR Inten    --      9.6780                 7.7315                 9.9195

 - Thermochemistry -
 -------------------
 Temperature   298.150 Kelvin.  Pressure   1.00000 Atm.
 Atom     1 has atomic number  6 and mass  12.00000

 Molecular mass:   292.00989 amu.
 Principal axes and moments of inertia in atomic units:
                           1         2         3
     Eigenvalues --  3948.038775001.361186130.39176
           X            0.99432  -0.10350   0.02464
           Y            0.09994   0.98807   0.11716
           Z           -0.03647  -0.11404   0.99281
 This molecule is an asymmetric top.
 Rotational symmetry number  1.
 Warning -- assumption of classical behavior for rotation
           may cause significant error
 Rotational temperatures (Kelvin)      0.02194     0.01732     0.01413
 Rotational constants (GHZ):           0.45712     0.36085     0.29439
 Zero-point vibrational energy     620902.2 (Joules/Mol)
                                  148.39918 (Kcal/Mol)
 Warning -- explicit consideration of  23 degrees of freedom as
           vibrations may cause significant error
 Vibrational temperatures:     35.05    74.97    87.93   108.36   136.88
          (Kelvin)            185.71   212.34   233.37   258.96   288.20
                              327.88   378.21   405.35   425.07   475.39
                              512.47   576.74   630.61   663.35   729.58
                              759.03   817.90   834.44   893.95   957.70
                              964.10  1027.90  1071.27  1090.91  1114.82
                             1134.98  1166.32  1261.99  1275.89  1363.91
                             1383.91  1384.48  1431.82  1472.13  1516.13
                             1523.11  1558.41  1600.86  1632.02  1654.16
                             1695.56  1698.90  1711.51  1721.61  1746.28
                             1756.89  1832.39  1837.53  1885.88  1903.13
                             1922.67  1947.07  2115.11  2124.16  2138.03
                             2157.68  2162.21  2167.69  2182.51  2184.77
                             2192.16  2212.80  2329.52  2357.90  2372.00
                             2381.74  4345.21  4349.06  4439.21  4453.12
                             4531.62  4537.34  4587.89  4590.89  4607.20
                             4625.22  4629.71  4635.70  4646.31

 Zero-point correction=                           0.236489 (Hartree/Particle)
 Thermal correction to Energy=                    0.252322
 Thermal correction to Enthalpy=                  0.253266
 Thermal correction to Gibbs Free Energy=         0.191667
 Sum of electronic and zero-point Energies=          -3263.299806
 Sum of electronic and thermal Energies=             -3263.283973
 Sum of electronic and thermal Enthalpies=           -3263.283029
 Sum of electronic and thermal Free Energies=        -3263.344628

                     E (Thermal)             CV                S
                      KCal/Mol        Cal/Mol-Kelvin    Cal/Mol-Kelvin
 Total                  158.334             58.955            129.646
 Electronic               0.000              0.000              0.000
 Translational            0.889              2.981             42.912
 Rotational               0.889              2.981             33.159
 Vibrational            156.557             52.993             53.575
 Vibration     1          0.593              1.985              6.243
 Vibration     2          0.596              1.977              4.736
 Vibration     3          0.597              1.973              4.421
 Vibration     4          0.599              1.965              4.010
 Vibration     5          0.603              1.953              3.552
 Vibration     6          0.612              1.924              2.960
 Vibration     7          0.617              1.905              2.703
 Vibration     8          0.622              1.889              2.524
 Vibration     9          0.629              1.867              2.329
 Vibration    10          0.638              1.839              2.130
 Vibration    11          0.651              1.798              1.896
 Vibration    12          0.670              1.741              1.643
 Vibration    13          0.681              1.707              1.523
 Vibration    14          0.690              1.682              1.443
 Vibration    15          0.713              1.615              1.258
 Vibration    16          0.732              1.563              1.139
 Vibration    17          0.767              1.468              0.960
 Vibration    18          0.798              1.387              0.832
 Vibration    19          0.819              1.336              0.763
 Vibration    20          0.862              1.234              0.641
 Vibration    21          0.883              1.189              0.593
 Vibration    22          0.924              1.099              0.507
 Vibration    23          0.937              1.075              0.485

 Optimization completed.
    -- Stationary point found.
 Normal termination of Gaussian 16 at Tue Sep 17 10:02:17 2024.

 ----------------------------------------------------------------------
 #p M062X/def2tzvp geom=check guess=read scf(xqc,tight) integral(grid=u
 ltrafine) scrf(SMD, solvent=1,4-Dioxane) polar prop=efg volume
 ----------------------------------------------------------------------

 ---
 spe
 ---
 Structure from the checkpoint file:  "smiles_00036_conf_4.chk"
 Charge =  0 Multiplicity = 1

 SCF Done:  E(RM062X) =  -3265.91832875     A.U. after   12 cycles

  Exact polarizability:     260.909      -6.427     214.966      16.003      -6.859     176.025
 Approx polarizability:     270.691      -3.406     242.253      16.211     -14.592     205.948

 Normal termination of Gaussian 16 at Tue Sep 17 12:07:43 2024.
 Gaussian 16:  ES64L-G16RevC.02  7-Dec-2021

 ----------------------------------------------------------------------
 #p M062X/def2tzvp geom=check guess=read scf(xqc,tight) integral(grid=u
 ltrafine) scrf(SMD, solvent=1,4-Dioxane) nmr=giao
 ----------------------------------------------------------------------

 ---
 spe
 ---
 Structure from the checkpoint file:  "smiles_00036_conf_4.chk"
 Charge =  0 Multiplicity = 1

                         Standard orientation:
 ---------------------------------------------------------------------
 Center     Atomic      Atomic             Coordinates (Angstroms)
 Number     Number       Type             X           Y           Z
 ---------------------------------------------------------------------
      1          6           0        1.427236   -2.964028   -1.354184
      2          8           0        0.827109   -1.680134   -1.314073
      3          6           0        1.548685   -0.652001   -0.786895
      4          6           0        2.929627   -0.691443   -0.576401
      5          6           0        3.576605    0.428423   -0.050201
      6          6           0        2.863450    1.574890    0.282603
      7          6           0        1.482022    1.599046    0.078732
      8          8           0        0.771789    2.729779    0.422166
      9          6           0        0.143786    2.631128    1.703469
     10          6           0        0.804663    0.498418   -0.458853
     11          6           0       -0.662915    0.540945   -0.683648
     12          6           0       -1.203013    1.403469   -1.647447
     13          6           0       -2.574231    1.462482   -1.881907
     14          6           0       -3.441501    0.653257   -1.147707
     15          6           0       -2.935279   -0.202937   -0.171540
     16          6           0       -1.561374   -0.244109    0.049450
     17         35           0       -0.906059   -1.367550    1.451304
     18          1           0        2.256524   -3.004752   -2.071426
     19          1           0        1.789465   -3.260964   -0.362816
     20          1           0        0.643632   -3.650813   -1.675649
     21          1           0        3.501188   -1.575674   -0.828106
     22          1           0        4.650771    0.396588    0.103865
     23          1           0        3.347765    2.450260    0.700045
     24          1           0       -0.505267    3.502765    1.802334
     25          1           0        0.894027    2.637808    2.504714
     26          1           0       -0.451648    1.715724    1.787529
     27          1           0       -0.522319    2.030740   -2.212460
     28          1           0       -2.964440    2.137643   -2.636649
     29          1           0       -4.511746    0.690007   -1.325170
     30          1           0       -3.593626   -0.827479    0.420562
 ---------------------------------------------------------------------

 SCF Done:  E(RM062X) =  -3265.91832875     A.U. after    1 cycles

      1  C    Isotropic =   128.8249   Anisotropy =    77.2657

      2  O    Isotropic =   223.9379   Anisotropy =   117.8013

      3  C    Isotropic =     4.0699   Anisotropy =   163.9581

      4  C    Isotropic =    61.3201   Anisotropy =   183.0728

      5  C    Isotropic =    32.6861   Anisotropy =   218.2925

      6  C    Isotropic =    51.2843   Anisotropy =   172.9620

      7  C    Isotropic =     2.5461   Anisotropy =   163.6291

      8  O    Isotropic =   259.9929   Anisotropy =    86.1130

      9  C    Isotropic =   121.6115   Anisotropy =    90.7096

     10  C    Isotropic =    38.8203   Anisotropy =   161.4023

     11  C    Isotropic =    23.9924   Anisotropy =   196.5195

     12  C    Isotropic =    28.2293   Anisotropy =   205.5039

     13  C    Isotropic =    36.5424   Anisotropy =   216.5995

     14  C    Isotropic =    34.7473   Anisotropy =   210.8691

     15  C    Isotropic =    31.2588   Anisotropy =   182.0853

     16  C    Isotropic =    22.1222   Anisotropy =   136.3082

     17  Br   Isotropic =  2102.4983   Anisotropy =  1161.8212

     18  H    Isotropic =    27.9604   Anisotropy =    10.0614

     19  H    Isotropic =    28.3453   Anisotropy =     8.5071

     20  H    Isotropic =    27.9187   Anisotropy =     9.4682

     21  H    Isotropic =    24.3756   Anisotropy =     8.1962

     22  H    Isotropic =    23.6676   Anisotropy =     5.1340

     23  H    Isotropic =    24.2790   Anisotropy =     6.4382

     24  H    Isotropic =    28.5592   Anisotropy =     9.4230

     25  H    Isotropic =    28.5364   Anisotropy =     8.8939

     26  H    Isotropic =    28.9146   Anisotropy =     5.9433

     27  H    Isotropic =    23.6108   Anisotropy =    10.5017

     28  H    Isotropic =    23.6501   Anisotropy =     5.2942

     29  H    Isotropic =    23.7337   Anisotropy =     5.0720

     30  H    Isotropic =    23.4178   Anisotropy =    11.0181

 The electronic state is 1-A.
 Alpha  occ. eigenvalues -- -485.37114 -63.35570 -57.17516 -57.17286 -57.17275
 Alpha  occ. eigenvalues --  -19.65531 -19.63894 -10.60837 -10.60060 -10.60007
 Alpha  occ. eigenvalues --  -10.58416 -10.57712 -10.56546 -10.55228 -10.55118
 Alpha  occ. eigenvalues --  -10.54918 -10.54832 -10.54758 -10.54561 -10.53949
 Alpha  occ. eigenvalues --  -10.53494  -9.02194  -6.84592  -6.83740  -6.83703
 Alpha  occ. eigenvalues --   -2.87970  -2.87665  -2.87626  -2.86831  -2.86831
 Alpha  occ. eigenvalues --   -1.19085  -1.17312  -0.98382  -0.95458  -0.89597
 Alpha  occ. eigenvalues --   -0.88144  -0.84851  -0.83288  -0.81137  -0.78586
 Alpha  occ. eigenvalues --   -0.77450  -0.71313  -0.68834  -0.66851  -0.66357
 Alpha  occ. eigenvalues --   -0.61245  -0.58793  -0.57885  -0.55395  -0.54989
 Alpha  occ. eigenvalues --   -0.54715  -0.53591  -0.52609  -0.51859  -0.51647
 Alpha  occ. eigenvalues --   -0.49294  -0.47956  -0.47716  -0.46135  -0.44984
 Alpha  occ. eigenvalues --   -0.44443  -0.43972  -0.42018  -0.41495  -0.40510
 Alpha  occ. eigenvalues --   -0.39420  -0.38683  -0.37172  -0.34893  -0.34438
 Alpha  occ. eigenvalues --   -0.31945  -0.29798  -0.29033  -0.27744
 Alpha virt. eigenvalues --    0.00136   0.01377   0.02903   0.03605   0.04303
 Alpha virt. eigenvalues --    0.07917   0.08820   0.09591   0.10212   0.11026
 Alpha virt. eigenvalues --    0.12185   0.12709   0.13097   0.13794   0.14070

 Mulliken charges:
               1
     1  C   -0.320822
     2  O   -0.289321
     3  C    0.256879
     4  C   -0.263366
     5  C   -0.144344
     6  C   -0.250489
     7  C    0.233470
     8  O   -0.332702
     9  C   -0.243046
    10  C   -0.041634
    11  C    0.009165
    12  C   -0.132947
    13  C   -0.171140
    14  C   -0.152342
    15  C   -0.164362
    16  C    0.007409
    17  Br  -0.112521
    18  H    0.156472
    19  H    0.166235
    20  H    0.164811
    21  H    0.177098
    22  H    0.162906
    23  H    0.164407
    24  H    0.155341
    25  H    0.147887
    26  H    0.138814
    27  H    0.173539
    28  H    0.164270
    29  H    0.165108
    30  H    0.175223
 Sum of Mulliken charges =   0.00000

 Dipole moment (field-independent basis, Debye):
    X=              0.2854    Y=             -0.9580    Z=             -0.3132  Tot=              1.0476
 Quadrupole moment (field-independent basis, Debye-Ang):
   XX=            -96.9058   YY=           -106.1557   ZZ=           -110.6188
   XY=             -6.8427   XZ=              2.3163   YZ=              3.8325

 Normal termination of Gaussian 16 at Tue Sep 17 12:53:43 2024.
