 Gaussian 16, Revision C.02,

 ----------------------------------------------------------------------
 #p B3LYP/6-31G(d,p) EmpiricalDispersion=GD3BJ opt freq scf(xqc,tight)
 integral(grid=ultrafine)
 ----------------------------------------------------------------------

 ----------------------------------
 opt-freq conformers_unique/conf_aa
 ----------------------------------
 Symbolic Z-matrix:
 Charge =  0 Multiplicity = 1

 SCF Done:  E(RB3LYP) =  -3263.53431730     A.U. after   14 cycles
 SCF Done:  E(RB3LYP) =  -3263.53592664     A.U. after   12 cycles
 SCF Done:  E(RB3LYP) =  -3263.53634724     A.U. after   12 cycles
 SCF Done:  E(RB3LYP) =  -3263.53657273     A.U. after   11 cycles
 SCF Done:  E(RB3LYP) =  -3263.53663360     A.U. after   10 cycles
 SCF Done:  E(RB3LYP) =  -3263.53671684     A.U. after   11 cycles
 SCF Done:  E(RB3LYP) =  -3263.53674218     A.U. after   11 cycles
 SCF Done:  E(RB3LYP) =  -3263.53673850     A.U. after   11 cycles
 SCF Done:  E(RB3LYP) =  -3263.53675551     A.U. after   11 cycles
 SCF Done:  E(RB3LYP) =  -3263.53675929     A.U. after    9 cycles
 SCF Done:  E(RB3LYP) =  -3263.53675912     A.U. after    8 cycles
 SCF Done:  E(RB3LYP) =  -3263.53675933     A.U. after    8 cycles
 Optimization completed.
    -- Stationary point found.
 Normal termination of Gaussian 16 at Tue Sep 17 09:53:50 2024.

 ----------------------------------------------------------------------
 #P Geom=AllCheck Guess=TCheck SCRF=Check GenChk RB3LYP/6-31G(d,p) Freq
 ----------------------------------------------------------------------

 Structure from the checkpoint file:  "smiles_00036_conf_0.chk"
 ----------------------------------
 opt-freq conformers_unique/conf_aa
 ----------------------------------
 Charge =  0 Multiplicity = 1

 SCF Done:  E(RB3LYP) =  -3263.53675933     A.U. after    1 cycles

                      1                      2                      3
                      A                      A                      A
 Frequencies --     35.9074                57.5071                62.5867
 Red. masses --      5.9499                 3.0888                 4.9613
 Frc consts  --      0.0045                 0.0060                 0.0115
 IR Inten    --      0.3563                 5.9191                 0.2102

                      4                      5                      6
                      A                      A                      A
 Frequencies --     69.8385                99.4368               135.4587
 Red. masses --      4.4533                 3.8637                 5.0344
 Frc consts  --      0.0128                 0.0225                 0.0544
 IR Inten    --      0.8234                 1.4771                 0.8831

                      7                      8                      9
                      A                      A                      A
 Frequencies --    151.0219               170.2450               194.2205
 Red. masses --      4.9618                 3.6363                 1.5792
 Frc consts  --      0.0667                 0.0621                 0.0351
 IR Inten    --      2.7707                 0.9575                 0.0367

                     10                     11                     12
                      A                      A                      A
 Frequencies --    232.8584               262.3128               264.9902
 Red. masses --      1.4502                 3.0625                 5.0273
 Frc consts  --      0.0463                 0.1242                 0.2080
 IR Inten    --      0.2681                 0.3275                 0.2711

                     13                     14                     15
                      A                      A                      A
 Frequencies --    281.7048               290.3367               333.3494
 Red. masses --      2.9753                 2.3916                 3.6715
 Frc consts  --      0.1391                 0.1188                 0.2404
 IR Inten    --      0.3975                 0.2335                 3.6490

                     16                     17                     18
                      A                      A                      A
 Frequencies --    365.5468               375.5540               422.9988
 Red. masses --      5.9778                 5.5089                 4.8559
 Frc consts  --      0.4706                 0.4578                 0.5119
 IR Inten    --      3.7829                 1.2905                 0.7916

                     19                     20                     21
                      A                      A                      A
 Frequencies --    459.0745               503.3051               548.5074
 Red. masses --      3.4525                 5.1109                 5.3486
 Frc consts  --      0.4287                 0.7628                 0.9481
 IR Inten    --      3.7287                 0.4279                 2.6593

                     22                     23                     24
                      A                      A                      A
 Frequencies --    571.4394               600.5230               620.8887
 Red. masses --      4.2839                 5.6875                 4.2826
 Frc consts  --      0.8242                 1.2085                 0.9727
 IR Inten    --      2.0440                11.8132                 3.1319

                     25                     26                     27
                      A                      A                      A
 Frequencies --    642.8926               670.6736               717.6799
 Red. masses --      4.2120                 6.3551                 5.7468
 Frc consts  --      1.0257                 1.6842                 1.7440
 IR Inten    --      5.7628                 7.8123                 9.3770

                     28                     29                     30
                      A                      A                      A
 Frequencies --    734.0189               756.3387               770.4344
 Red. masses --      1.9810                 2.3168                 1.4074
 Frc consts  --      0.6288                 0.7809                 0.4922
 IR Inten    --      9.9586                18.3231                21.7058

                     31                     32                     33
                      A                      A                      A
 Frequencies --    787.0836               789.8433               845.3187
 Red. masses --      4.2651                 3.7917                 1.4558
 Frc consts  --      1.5568                 1.3937                 0.6129
 IR Inten    --     12.5022                30.3194                 0.0319

                     34                     35                     36
                      A                      A                      A
 Frequencies --    885.9242               939.7825               952.9008
 Red. masses --      1.4213                 4.8856                 1.2475
 Frc consts  --      0.6572                 2.5423                 0.6674
 IR Inten    --      0.1995                 1.5217                 0.1857

                     37                     38                     39
                      A                      A                      A
 Frequencies --    959.6307               992.8505              1022.2376
 Red. masses --      1.4090                 1.2947                 7.4851
 Frc consts  --      0.7645                 0.7519                 4.6084
 IR Inten    --      0.8843                 0.0359                16.7636

                     40                     41                     42
                      A                      A                      A
 Frequencies --   1053.5100              1084.7384              1086.6971
 Red. masses --      6.0207                 2.3292                 5.6509
 Frc consts  --      3.9371                 1.6148                 3.9318
 IR Inten    --     26.8472                 1.8045                24.2384

                     43                     44                     45
                      A                      A                      A
 Frequencies --   1130.6886              1146.5174              1160.6801
 Red. masses --      1.6984                 1.7501                 2.7309
 Frc consts  --      1.2793                 1.3554                 2.1676
 IR Inten    --      2.5796                27.7842               234.9084

                     46                     47                     48
                      A                      A                      A
 Frequencies --   1177.4248              1179.7313              1189.3956
 Red. masses --      1.2766                 1.2733                 1.0888
 Frc consts  --      1.0428                 1.0441                 0.9075
 IR Inten    --      1.4353                 0.8970                 0.3908

                     49                     50                     51
                      A                      A                      A
 Frequencies --   1205.0184              1217.0012              1219.6408
 Red. masses --      1.3996                 1.3587                 1.3571
 Frc consts  --      1.1974                 1.1857                 1.1894
 IR Inten    --     12.3651                 1.5685                12.5625

                     52                     53                     54
                      A                      A                      A
 Frequencies --   1275.8247              1290.9618              1310.6383
 Red. masses --      1.8517                 2.2706                 2.2485
 Frc consts  --      1.7758                 2.2295                 2.2757
 IR Inten    --     43.2268               220.9682                 9.0295

                     55                     56                     57
                      A                      A                      A
 Frequencies --   1335.0248              1337.2217              1361.8046
 Red. masses --      6.1579                 4.9282                 7.5911
 Frc consts  --      6.4664                 5.1921                 8.2944
 IR Inten    --      0.9237                 6.1900                21.4990

                     58                     59                     60
                      A                      A                      A
 Frequencies --   1470.1483              1477.8798              1489.1899
 Red. masses --      1.8467                 1.4485                 1.3176
 Frc consts  --      2.3516                 1.8640                 1.7217
 IR Inten    --     74.9501                43.4121                 8.0614

                     61                     62                     63
                      A                      A                      A
 Frequencies --   1500.8586              1504.8771              1506.5684
 Red. masses --      1.0980                 1.0721                 1.8477
 Frc consts  --      1.4572                 1.4305                 2.4710
 IR Inten    --      7.6644                 5.0103                27.7429

                     64                     65                     66
                      A                      A                      A
 Frequencies --   1516.9549              1519.6717              1524.1795
 Red. masses --      1.1447                 1.1801                 1.7694
 Frc consts  --      1.5520                 1.6057                 2.4218
 IR Inten    --     73.7748                22.3383                47.4751

                     67                     68                     69
                      A                      A                      A
 Frequencies --   1543.0123              1619.2325              1646.7691
 Red. masses --      3.0824                 5.6275                 6.4789
 Frc consts  --      4.3239                 8.6933                10.3518
 IR Inten    --      2.8821                 7.0000                41.8689

                     70                     71                     72
                      A                      A                      A
 Frequencies --   1648.5711              1653.3029              3017.4237
 Red. masses --      6.7568                 6.7383                 1.0347
 Frc consts  --     10.8195                10.8518                 5.5505
 IR Inten    --    112.0651                25.3702                65.5228

                     73                     74                     75
                      A                      A                      A
 Frequencies --   3021.7624              3079.9705              3089.3995
 Red. masses --      1.0352                 1.1060                 1.1046
 Frc consts  --      5.5691                 6.1816                 6.2117
 IR Inten    --     60.7979                36.5909                33.5137

                     76                     77                     78
                      A                      A                      A
 Frequencies --   3151.6312              3152.5298              3186.6320
 Red. masses --      1.1001                 1.1010                 1.0856
 Frc consts  --      6.4382                 6.4468                 6.4953
 IR Inten    --     21.1967                19.6561                 1.2356

                     79                     80                     81
                      A                      A                      A
 Frequencies --   3190.0134              3199.9496              3212.0552
 Red. masses --      1.0887                 1.0906                 1.0950
 Frc consts  --      6.5273                 6.5799                 6.6564
 IR Inten    --     12.0244                16.8754                16.1254

                     82                     83                     84
                      A                      A                      A
 Frequencies --   3221.1045              3230.2035              3236.0966
 Red. masses --      1.0954                 1.0911                 1.0926
 Frc consts  --      6.6964                 6.7078                 6.7414
 IR Inten    --      8.4247                11.3684                 8.6961

 - Thermochemistry -
 -------------------
 Temperature   298.150 Kelvin.  Pressure   1.00000 Atm.
 Atom     1 has atomic number  6 and mass  12.00000

 Molecular mass:   292.00989 amu.
 Principal axes and moments of inertia in atomic units:
                           1         2         3
     Eigenvalues --  4083.680745030.745986743.70745
           X            0.99711  -0.06117  -0.04499
           Y            0.05847   0.99654  -0.05908
           Z            0.04845   0.05628   0.99724
 This molecule is an asymmetric top.
 Rotational symmetry number  1.
 Warning -- assumption of classical behavior for rotation
           may cause significant error
 Rotational temperatures (Kelvin)      0.02121     0.01722     0.01284
 Rotational constants (GHZ):           0.44194     0.35874     0.26762
 Zero-point vibrational energy     621757.5 (Joules/Mol)
                                  148.60360 (Kcal/Mol)
 Warning -- explicit consideration of  23 degrees of freedom as
           vibrations may cause significant error
 Vibrational temperatures:     51.66    82.74    90.05   100.48   143.07
          (Kelvin)            194.89   217.29   244.94   279.44   335.03
                              377.41   381.26   405.31   417.73   479.62
                              525.94   540.34   608.60   660.51   724.14
                              789.18   822.17   864.02   893.32   924.98
                              964.95  1032.58  1056.09  1088.20  1108.48
                             1132.44  1136.41  1216.23  1274.65  1352.14
                             1371.01  1380.69  1428.49  1470.77  1515.77
                             1560.70  1563.51  1626.81  1649.58  1669.96
                             1694.05  1697.37  1711.28  1733.75  1750.99
                             1754.79  1835.63  1857.41  1885.72  1920.80
                             1923.96  1959.33  2115.22  2126.34  2142.61
                             2159.40  2165.18  2167.62  2182.56  2186.47
                             2192.95  2220.05  2329.71  2369.33  2371.93
                             2378.73  4341.40  4347.64  4431.39  4444.96
                             4534.49  4535.79  4584.85  4589.72  4604.01
                             4621.43  4634.45  4647.54  4656.02

 Zero-point correction=                           0.236815 (Hartree/Particle)
 Thermal correction to Energy=                    0.252489
 Thermal correction to Enthalpy=                  0.253433
 Thermal correction to Gibbs Free Energy=         0.192595
 Sum of electronic and zero-point Energies=          -3263.299944
 Sum of electronic and thermal Energies=             -3263.284270
 Sum of electronic and thermal Enthalpies=           -3263.283326
 Sum of electronic and thermal Free Energies=        -3263.344165

                     E (Thermal)             CV                S
                      KCal/Mol        Cal/Mol-Kelvin    Cal/Mol-Kelvin
 Total                  158.439             58.886            128.046
 Electronic               0.000              0.000              0.000
 Translational            0.889              2.981             42.912
 Rotational               0.889              2.981             33.293
 Vibrational            156.662             52.924             51.840
 Vibration     1          0.594              1.982              5.473
 Vibration     2          0.596              1.974              4.541
 Vibration     3          0.597              1.972              4.374
 Vibration     4          0.598              1.969              4.158
 Vibration     5          0.604              1.950              3.465
 Vibration     6          0.613              1.918              2.867
 Vibration     7          0.618              1.902              2.659
 Vibration     8          0.625              1.879              2.433
 Vibration     9          0.635              1.848              2.187
 Vibration    10          0.654              1.791              1.857
 Vibration    11          0.670              1.742              1.646
 Vibration    12          0.671              1.737              1.629
 Vibration    13          0.681              1.708              1.523
 Vibration    14          0.686              1.692              1.472
 Vibration    15          0.715              1.609              1.244
 Vibration    16          0.739              1.543              1.098
 Vibration    17          0.746              1.522              1.057
 Vibration    18          0.785              1.420              0.882
 Vibration    19          0.817              1.341              0.769
 Vibration    20          0.859              1.243              0.650
 Vibration    21          0.904              1.143              0.547
 Vibration    22          0.928              1.093              0.501
 Vibration    23          0.959              1.031              0.449

                           ! Non-Optimized Parameters !
 Normal termination of Gaussian 16 at Tue Sep 17 09:58:04 2024.

 ----------------------------------------------------------------------
 #p M062X/def2tzvp geom=check guess=read scf(xqc,tight) integral(grid=u
 ltrafine) scrf(SMD, solvent=1,4-Dioxane) polar prop=efg volume
 ----------------------------------------------------------------------

 ---
 spe
 ---
 Structure from the checkpoint file:  "smiles_00036_conf_0.chk"
 Charge =  0 Multiplicity = 1

 SCF Done:  E(RM062X) =  -3265.92121858     A.U. after   12 cycles

  Exact polarizability:     252.397     -15.649     241.179     -10.391      10.939     166.325
 Approx polarizability:     263.914     -12.878     259.823      -7.913      16.763     197.744

 Normal termination of Gaussian 16 at Tue Sep 17 11:59:05 2024.
 Gaussian 16:  ES64L-G16RevC.02  7-Dec-2021

 ----------------------------------------------------------------------
 #p M062X/def2tzvp geom=check guess=read scf(xqc,tight) integral(grid=u
 ltrafine) scrf(SMD, solvent=1,4-Dioxane) nmr=giao
 ----------------------------------------------------------------------

 ---
 spe
 ---
 Structure from the checkpoint file:  "smiles_00036_conf_0.chk"
 Charge =  0 Multiplicity = 1

                         Standard orientation:
 ---------------------------------------------------------------------
 Center     Atomic      Atomic             Coordinates (Angstroms)
 Number     Number       Type             X           Y           Z
 ---------------------------------------------------------------------
      1          6           0       -0.085281   -3.189497    1.412643
      2          8           0       -0.039526   -1.771709    1.405693
      3          6           0        1.043344   -1.170973    0.836562
      4          6           0        2.280662   -1.802422    0.670223
      5          6           0        3.332463   -1.084753    0.108272
      6          6           0        3.177399    0.241120   -0.289284
      7          6           0        1.930436    0.858354   -0.130012
      8          8           0        1.668620    2.143221   -0.507464
      9          6           0        2.705643    2.883747   -1.127902
     10          6           0        0.845091    0.157228    0.424137
     11          6           0       -0.490776    0.793171    0.552623
     12          6           0       -0.674821    1.888240    1.408372
     13          6           0       -1.916379    2.500335    1.554177
     14          6           0       -3.013816    2.023596    0.837579
     15          6           0       -2.861280    0.941381   -0.026747
     16          6           0       -1.609962    0.345588   -0.162485
     17         35           0       -1.449696   -1.112215   -1.393003
     18          1           0        0.089823   -3.592006    0.408447
     19          1           0        0.642698   -3.619295    2.111870
     20          1           0       -1.091371   -3.454659    1.739428
     21          1           0        2.425834   -2.828652    0.981906
     22          1           0        4.296988   -1.566664   -0.019308
     23          1           0        4.012005    0.774864   -0.723900
     24          1           0        3.043791    2.405024   -2.055235
     25          1           0        3.565359    3.016048   -0.458928
     26          1           0        2.277709    3.859381   -1.360990
     27          1           0        0.182744    2.253637    1.962826
     28          1           0       -2.027286    3.344679    2.227095
     29          1           0       -3.987846    2.490606    0.945071
     30          1           0       -3.700163    0.561771   -0.597955
 ---------------------------------------------------------------------

 SCF Done:  E(RM062X) =  -3265.92121858     A.U. after    1 cycles

      1  C    Isotropic =   128.1954   Anisotropy =    77.5960

      2  O    Isotropic =   225.9369   Anisotropy =   120.5805

      3  C    Isotropic =     3.6604   Anisotropy =   164.1880

      4  C    Isotropic =    64.2561   Anisotropy =   177.9872

      5  C    Isotropic =    32.9433   Anisotropy =   216.8625

      6  C    Isotropic =    66.1536   Anisotropy =   174.6111

      7  C    Isotropic =     6.2663   Anisotropy =   160.2152

      8  O    Isotropic =   223.9201   Anisotropy =   110.7484

      9  C    Isotropic =   129.6702   Anisotropy =    75.7060

     10  C    Isotropic =    46.6043   Anisotropy =   148.4114

     11  C    Isotropic =    24.2683   Anisotropy =   196.3865

     12  C    Isotropic =    28.1301   Anisotropy =   206.7728

     13  C    Isotropic =    37.3451   Anisotropy =   214.7097

     14  C    Isotropic =    35.5167   Anisotropy =   209.1459

     15  C    Isotropic =    31.3427   Anisotropy =   181.9114

     16  C    Isotropic =    21.9469   Anisotropy =   134.4495

     17  Br   Isotropic =  2096.5353   Anisotropy =  1187.3353

     18  H    Isotropic =    28.3647   Anisotropy =     8.0077

     19  H    Isotropic =    27.8683   Anisotropy =     9.9353

     20  H    Isotropic =    27.9663   Anisotropy =     9.4669

     21  H    Isotropic =    24.4923   Anisotropy =     8.1355

     22  H    Isotropic =    23.6351   Anisotropy =     5.5520

     23  H    Isotropic =    24.5716   Anisotropy =     7.5313

     24  H    Isotropic =    28.3197   Anisotropy =     9.2382

     25  H    Isotropic =    28.1837   Anisotropy =     9.4640

     26  H    Isotropic =    27.9972   Anisotropy =     9.3476

     27  H    Isotropic =    23.6278   Anisotropy =    10.5097

     28  H    Isotropic =    23.7034   Anisotropy =     5.4347

     29  H    Isotropic =    23.7591   Anisotropy =     5.1741

     30  H    Isotropic =    23.5042   Anisotropy =    11.0280

 The electronic state is 1-A.
 Alpha  occ. eigenvalues -- -485.36635 -63.35096 -57.17042 -57.16810 -57.16801
 Alpha  occ. eigenvalues --  -19.65576 -19.65128 -10.60793 -10.60538 -10.59671
 Alpha  occ. eigenvalues --  -10.58464 -10.58146 -10.56196 -10.54827 -10.54681
 Alpha  occ. eigenvalues --  -10.54673 -10.54544 -10.54463 -10.54217 -10.53520
 Alpha  occ. eigenvalues --  -10.53429  -9.01722  -6.84122  -6.83265  -6.83233
 Alpha  occ. eigenvalues --   -2.87500  -2.87192  -2.87157  -2.86357  -2.86357
 Alpha  occ. eigenvalues --   -1.19045  -1.18680  -0.98014  -0.95306  -0.89156
 Alpha  occ. eigenvalues --   -0.88041  -0.84908  -0.83245  -0.80778  -0.79400
 Alpha  occ. eigenvalues --   -0.77339  -0.71327  -0.68453  -0.66525  -0.66115
 Alpha  occ. eigenvalues --   -0.61565  -0.58587  -0.57978  -0.55551  -0.55242
 Alpha  occ. eigenvalues --   -0.54873  -0.54200  -0.52755  -0.51657  -0.51441
 Alpha  occ. eigenvalues --   -0.48952  -0.47516  -0.46978  -0.45783  -0.45517
 Alpha  occ. eigenvalues --   -0.44871  -0.43147  -0.41990  -0.41446  -0.40303
 Alpha  occ. eigenvalues --   -0.40127  -0.38528  -0.37559  -0.36513  -0.34179
 Alpha  occ. eigenvalues --   -0.31463  -0.29274  -0.27577  -0.27530
 Alpha virt. eigenvalues --    0.00379   0.01818   0.03470   0.04302   0.04572
 Alpha virt. eigenvalues --    0.07916   0.08732   0.08820   0.10510   0.11274
 Alpha virt. eigenvalues --    0.12217   0.12574   0.13405   0.14217   0.14369

 Mulliken charges:
               1
     1  C   -0.318345
     2  O   -0.291110
     3  C    0.256181
     4  C   -0.268340
     5  C   -0.160081
     6  C   -0.312644
     7  C    0.323231
     8  O   -0.279630
     9  C   -0.324877
    10  C   -0.089887
    11  C    0.093242
    12  C   -0.157018
    13  C   -0.167623
    14  C   -0.156487
    15  C   -0.178788
    16  C    0.001803
    17  Br  -0.120124
    18  H    0.168648
    19  H    0.154035
    20  H    0.165594
    21  H    0.172548
    22  H    0.162496
    23  H    0.176001
    24  H    0.162093
    25  H    0.157462
    26  H    0.163131
    27  H    0.169869
    28  H    0.161904
    29  H    0.163371
    30  H    0.173345
 Sum of Mulliken charges =  -0.00000

 Dipole moment (field-independent basis, Debye):
    X=              1.8631    Y=              0.4819    Z=              0.5299  Tot=              1.9960
 Quadrupole moment (field-independent basis, Debye-Ang):
   XX=            -97.0709   YY=            -95.0722   ZZ=           -113.8291
   XY=              0.0627   XZ=             -4.5914   YZ=             -2.5747

 Normal termination of Gaussian 16 at Tue Sep 17 12:43:22 2024.
