 Gaussian 16, Revision C.02,

 ----------------------------------------------------------------------
 #p B3LYP/gen pseudo=read EmpiricalDispersion=GD3BJ opt freq scf(xqc,ti
 ght) integral(grid=ultrafine)
 ----------------------------------------------------------------------

 ----------------------------------
 opt-freq conformers_unique/conf_aa
 ----------------------------------
 Symbolic Z-matrix:
 Charge =  0 Multiplicity = 1

 SCF Done:  E(RB3LYP) =  -470.942665411     A.U. after   15 cycles
 SCF Done:  E(RB3LYP) =  -470.943827732     A.U. after   12 cycles
 SCF Done:  E(RB3LYP) =  -470.943882242     A.U. after   11 cycles
 SCF Done:  E(RB3LYP) =  -470.943886590     A.U. after    9 cycles
 SCF Done:  E(RB3LYP) =  -470.943887002     A.U. after    8 cycles
 SCF Done:  E(RB3LYP) =  -470.943887266     A.U. after    8 cycles
 Optimization completed.
    -- Stationary point found.
 Normal termination of Gaussian 16 at Tue Sep 17 09:47:58 2024.

 ------------------------------------------------------------------
 #P Geom=AllCheck Guess=TCheck SCRF=Check GenChk RB3LYP/ChkBas Freq
 ------------------------------------------------------------------

 Structure from the checkpoint file:  "smiles_00089_conf_0.chk"
 ----------------------------------
 opt-freq conformers_unique/conf_aa
 ----------------------------------
 Charge =  0 Multiplicity = 1

 SCF Done:  E(RB3LYP) =  -470.943887266     A.U. after    1 cycles

                      1                      2                      3
                      A                      A                      A
 Frequencies --     53.4366                69.3856               113.5656
 Red. masses --      4.6761                 5.0614                 5.5630
 Frc consts  --      0.0079                 0.0144                 0.0423
 IR Inten    --      0.3831                 0.7705                 0.5262

                      4                      5                      6
                      A                      A                      A
 Frequencies --    123.9263               149.3068               195.3617
 Red. masses --      1.2470                 3.0100                13.8093
 Frc consts  --      0.0113                 0.0395                 0.3105
 IR Inten    --      0.9886                 1.9673                 0.5277

                      7                      8                      9
                      A                      A                      A
 Frequencies --    235.7891               266.1422               335.7032
 Red. masses --      4.8956                 6.4283                 4.4744
 Frc consts  --      0.1604                 0.2683                 0.2971
 IR Inten    --      2.0254                 4.5449                20.7118

                     10                     11                     12
                      A                      A                      A
 Frequencies --    417.4077               422.2359               478.4255
 Red. masses --      2.9786                 6.0918                 3.6227
 Frc consts  --      0.3058                 0.6399                 0.4886
 IR Inten    --      0.0002                 3.8347                 4.9300

                     13                     14                     15
                      A                      A                      A
 Frequencies --    494.8335               641.6612               695.6465
 Red. masses --      7.1413                 7.0853                 4.7762
 Frc consts  --      1.0303                 1.7188                 1.3618
 IR Inten    --     11.7445                 1.5625                12.1446

                     16                     17                     18
                      A                      A                      A
 Frequencies --    708.0552               764.8819               838.0464
 Red. masses --      6.8000                 3.1046                 5.2999
 Frc consts  --      2.0086                 1.0701                 2.1931
 IR Inten    --      6.8396                34.7016                24.2352

                     19                     20                     21
                      A                      A                      A
 Frequencies --    850.3346               861.7987               983.0990
 Red. masses --      1.3192                 1.6547                 1.3354
 Frc consts  --      0.5620                 0.7241                 0.7604
 IR Inten    --      1.9529                12.4277                 0.0144

                     22                     23                     24
                      A                      A                      A
 Frequencies --    996.1560              1003.7637              1024.5453
 Red. masses --      1.3351                 7.4073                 5.7392
 Frc consts  --      0.7806                 4.3972                 3.5495
 IR Inten    --      0.1456                 6.3873                97.9988

                     25                     26                     27
                      A                      A                      A
 Frequencies --   1080.2524              1132.8441              1149.3499
 Red. masses --      2.3655                 1.4047                 3.1607
 Frc consts  --      1.6264                 1.0621                 2.4600
 IR Inten    --     10.3122                30.1749               104.6281

                     28                     29                     30
                      A                      A                      A
 Frequencies --   1180.2246              1207.8893              1219.4089
 Red. masses --      1.2767                 1.1597                 1.6559
 Frc consts  --      1.0478                 0.9969                 1.4507
 IR Inten    --      0.8078                46.0098                53.6885

                     31                     32                     33
                      A                      A                      A
 Frequencies --   1319.2677              1327.5709              1350.4499
 Red. masses --      4.6606                 1.3329                 7.7133
 Frc consts  --      4.7792                 1.3840                 8.2879
 IR Inten    --    498.8240                 3.6187                25.6753

                     34                     35                     36
                      A                      A                      A
 Frequencies --   1434.4370              1482.4797              1494.3756
 Red. masses --      2.8925                 1.2166                 1.0463
 Frc consts  --      3.5066                 1.5753                 1.3766
 IR Inten    --     27.2386                28.7909                 6.3032

                     37                     38                     39
                      A                      A                      A
 Frequencies --   1509.4424              1525.6504              1622.3494
 Red. masses --      1.0523                 2.3444                 7.4972
 Frc consts  --      1.4126                 3.2150                11.6262
 IR Inten    --      8.1947                13.6612                 2.8899

                     40                     41                     42
                      A                      A                      A
 Frequencies --   1643.6620              1806.0834              3067.5466
 Red. masses --      5.7560                11.7460                 1.0297
 Frc consts  --      9.1621                22.5743                 5.7090
 IR Inten    --    110.3436               235.4973                39.3351

                     43                     44                     45
                      A                      A                      A
 Frequencies --   3144.3730              3177.9008              3217.1457
 Red. masses --      1.1070                 1.1072                 1.0884
 Frc consts  --      6.4484                 6.5882                 6.6373
 IR Inten    --     19.4868                15.7517                 0.2855

                     46                     47                     48
                      A                      A                      A
 Frequencies --   3219.5439              3230.0125              3235.1900
 Red. masses --      1.0890                 1.0952                 1.0947
 Frc consts  --      6.6508                 6.7323                 6.7504
 IR Inten    --      0.7554                 2.0312                 1.3785

 - Thermochemistry -
 -------------------
 Temperature   298.150 Kelvin.  Pressure   1.00000 Atm.
 Atom     1 has atomic number  6 and mass  12.00000

 Molecular mass:   261.94500 amu.
 Principal axes and moments of inertia in atomic units:
                           1         2         3
     Eigenvalues --   528.467518275.500758792.61179
           X            0.99996  -0.00869  -0.00009
           Y            0.00869   0.99996  -0.00010
           Z            0.00009   0.00010   1.00000
 This molecule is an asymmetric top.
 Rotational symmetry number  1.
 Warning -- assumption of classical behavior for rotation
           may cause significant error
 Rotational temperatures (Kelvin)      0.16390     0.01047     0.00985
 Rotational constants (GHZ):           3.41505     0.21808     0.20526
 Zero-point vibrational energy     349913.4 (Joules/Mol)
                                   83.63132 (Kcal/Mol)
 Warning -- explicit consideration of  13 degrees of freedom as
           vibrations may cause significant error
 Vibrational temperatures:     76.88    99.83   163.40   178.30   214.82
          (Kelvin)            281.08   339.25   382.92   483.00   600.56
                              607.50   688.35   711.96   923.21  1000.88
                             1018.73  1100.49  1205.76  1223.44  1239.94
                             1414.46  1433.25  1444.19  1474.09  1554.24
                             1629.91  1653.66  1698.08  1737.88  1754.46
                             1898.13  1910.08  1943.00  2063.83  2132.96
                             2150.07  2171.75  2195.07  2334.20  2364.86
                             2598.55  4413.52  4524.05  4572.29  4628.76
                             4632.21  4647.27  4654.72

 Zero-point correction=                           0.133275 (Hartree/Particle)
 Thermal correction to Energy=                    0.143715
 Thermal correction to Enthalpy=                  0.144659
 Thermal correction to Gibbs Free Energy=         0.094777
 Sum of electronic and zero-point Energies=           -470.810612
 Sum of electronic and thermal Energies=              -470.800173
 Sum of electronic and thermal Enthalpies=            -470.799228
 Sum of electronic and thermal Free Energies=         -470.849110

                     E (Thermal)             CV                S
                      KCal/Mol        Cal/Mol-Kelvin    Cal/Mol-Kelvin
 Total                   90.182             36.897            104.985
 Electronic               0.000              0.000              0.000
 Translational            0.889              2.981             42.588
 Rotational               0.889              2.981             32.020
 Vibrational             88.405             30.935             30.377
 Vibration     1          0.596              1.976              4.686
 Vibration     2          0.598              1.969              4.171
 Vibration     3          0.607              1.938              3.207
 Vibration     4          0.610              1.929              3.038
 Vibration     5          0.618              1.903              2.681
 Vibration     6          0.636              1.846              2.176
 Vibration     7          0.655              1.786              1.834
 Vibration     8          0.672              1.735              1.621
 Vibration     9          0.717              1.604              1.232
 Vibration    10          0.780              1.432              0.901
 Vibration    11          0.785              1.422              0.884
 Vibration    12          0.835              1.298              0.714
 Vibration    13          0.850              1.261              0.671

                           ! Non-Optimized Parameters !
 Normal termination of Gaussian 16 at Tue Sep 17 09:49:16 2024.

 ----------------------------------------------------------------------
 #p M062X/def2tzvp geom=check guess=read scf(xqc,tight) integral(grid=u
 ltrafine) scrf(SMD, solvent=1,4-Dioxane) polar prop=efg volume
 ----------------------------------------------------------------------

 ---
 spe
 ---
 Structure from the checkpoint file:  "smiles_00089_conf_0.chk"
 Charge =  0 Multiplicity = 1

 SCF Done:  E(RM062X) =  -757.148580832     A.U. after   22 cycles

  Exact polarizability:     233.664       1.669     139.715       0.019       0.004      84.568
 Approx polarizability:     218.983       5.190     173.440       0.015       0.004     107.060

 1\1\GINC-HPC-20-32\SP\RM062X\def2TZVP\C8H7I1O2\MANTIND\17-Sep-2024\0\\
 #p M062X/def2tzvp geom=check guess=read scf(xqc,tight) integral(grid=u
 ltrafine) scrf(SMD, solvent=1,4-Dioxane) polar prop=efg volume\\spe\\0
 ,1\C,0,-5.7697637243,0.8340458577,-0.0000619564\O,0,-4.3356360167,0.89
 27041594,-0.0000159862\C,0,-3.7147101245,-0.3076545091,0.0000976426\O,
 0,-4.3116701165,-1.3665079381,0.0002907814\C,0,-2.2325773879,-0.178122
 2702,-0.0000668463\C,0,-1.4740784036,-1.3542697221,-0.0000831762\C,0,-
 0.0833496919,-1.2977534899,-0.0002344302\C,0,0.5417822615,-0.050217748

 Normal termination of Gaussian 16 at Tue Sep 17 10:44:35 2024.
 Gaussian 16:  ES64L-G16RevC.02  7-Dec-2021

 ----------------------------------------------------------------------
 #p M062X/def2tzvp geom=check guess=read scf(xqc,tight) integral(grid=u
 ltrafine) scrf(SMD, solvent=1,4-Dioxane) nmr=giao
 ----------------------------------------------------------------------

 ---
 spe
 ---
 Structure from the checkpoint file:  "smiles_00089_conf_0.chk"
 Charge =  0 Multiplicity = 1

                         Standard orientation:
 ---------------------------------------------------------------------
 Center     Atomic      Atomic             Coordinates (Angstroms)
 Number     Number       Type             X           Y           Z
 ---------------------------------------------------------------------
      1          6           0        5.487121   -0.777817    0.000234
      2          8           0        4.053675   -0.851273    0.000280
      3          6           0        3.420394    0.342613    0.000393
      4          8           0        4.006394    1.407571    0.000586
      5          6           0        1.939677    0.197792    0.000229
      6          6           0        1.169080    1.366049    0.000212
      7          6           0       -0.220992    1.295183    0.000061
      8          6           0       -0.833215    0.041262   -0.000057
      9         53           0       -2.968296   -0.080782   -0.000283
     10          6           0       -0.082930   -1.134679   -0.000030
     11          6           0        1.307867   -1.051309    0.000110
     12          1           0        5.843743   -0.248160   -0.886440
     13          1           0        5.843996   -0.253324    0.889909
     14          1           0        5.834429   -1.810556   -0.002707
     15          1           0        1.677215    2.324059    0.000321
     16          1           0       -0.816027    2.200651    0.000039
     17          1           0       -0.572208   -2.101424   -0.000115
     18          1           0        1.905991   -1.954721    0.000128
 ---------------------------------------------------------------------

 SCF Done:  E(RM062X) =  -757.148580832     A.U. after    1 cycles

      1  C    Isotropic =   130.7012   Anisotropy =    72.5426

      2  O    Isotropic =   137.8228   Anisotropy =   162.7573

      3  C    Isotropic =    -0.8734   Anisotropy =   104.9698

      4  O    Isotropic =  -129.1773   Anisotropy =   694.9231

      5  C    Isotropic =    33.5036   Anisotropy =   192.2731

      6  C    Isotropic =    29.8079   Anisotropy =   219.7529

      7  C    Isotropic =    26.2048   Anisotropy =   186.4563

      8  C    Isotropic =    17.6936   Anisotropy =   152.9936

      9  I    Isotropic =   433.7198   Anisotropy =    72.6448

     10  C    Isotropic =    26.6430   Anisotropy =   185.0369

     11  C    Isotropic =    32.3283   Anisotropy =   214.6266

     12  H    Isotropic =    27.9488   Anisotropy =     8.2523

     13  H    Isotropic =    27.9566   Anisotropy =     8.2674

     14  H    Isotropic =    28.0246   Anisotropy =     7.6878

     15  H    Isotropic =    22.7451   Anisotropy =     8.7713

     16  H    Isotropic =    23.3971   Anisotropy =    12.4630

     17  H    Isotropic =    23.4288   Anisotropy =    12.6241

     18  H    Isotropic =    23.0023   Anisotropy =     9.6043

 The electronic state is 1-A.
 Alpha  occ. eigenvalues --  -19.67757 -19.62193 -10.68148 -10.60947 -10.58983
 Alpha  occ. eigenvalues --  -10.57022 -10.56611 -10.56500 -10.56482 -10.56366
 Alpha  occ. eigenvalues --   -7.10942  -5.10288  -5.09247  -5.09233  -2.07119
 Alpha  occ. eigenvalues --   -2.06685  -2.06678  -2.05810  -2.05809  -1.23701
 Alpha  occ. eigenvalues --   -1.14369  -0.98621  -0.89124  -0.86489  -0.82615
 Alpha  occ. eigenvalues --   -0.78339  -0.71238  -0.70584  -0.65564  -0.62568
 Alpha  occ. eigenvalues --   -0.57241  -0.57091  -0.53979  -0.53488  -0.53177
 Alpha  occ. eigenvalues --   -0.50825  -0.48442  -0.48081  -0.45449  -0.43889
 Alpha  occ. eigenvalues --   -0.42153  -0.40185  -0.38273  -0.36566  -0.36046
 Alpha  occ. eigenvalues --   -0.32865  -0.32671  -0.30031
 Alpha virt. eigenvalues --   -0.03108  -0.00873   0.00230   0.08007   0.08317
 Alpha virt. eigenvalues --    0.09653   0.10990   0.11458   0.13013   0.13602
 Alpha virt. eigenvalues --    0.15105   0.15726   0.15762   0.17403   0.17979

 Mulliken charges:
               1
     1  C   -0.268800
     2  O   -0.279795
     3  C    0.375963
     4  O   -0.368681
     5  C    0.038655
     6  C   -0.170623
     7  C   -0.184808
     8  C    0.079152
     9  I   -0.086500
    10  C   -0.183541
    11  C   -0.180835
    12  H    0.160943
    13  H    0.160939
    14  H    0.156065
    15  H    0.188420
    16  H    0.191183
    17  H    0.190363
    18  H    0.181901
 Sum of Mulliken charges =  -0.00000

 Dipole moment (field-independent basis, Debye):
    X=              0.9528    Y=             -1.8897    Z=             -0.0005  Tot=              2.1163
 Quadrupole moment (field-independent basis, Debye-Ang):
   XX=            -77.2923   YY=            -81.7839   ZZ=            -87.2402
   XY=            -10.6253   XZ=             -0.0024   YZ=             -0.0010

 1\1\GINC-HPC-20-32\SP\RM062X\def2TZVP\C8H7I1O2\MANTIND\17-Sep-2024\0\\
 #p M062X/def2tzvp geom=check guess=read scf(xqc,tight) integral(grid=u
 ltrafine) scrf(SMD, solvent=1,4-Dioxane) nmr=giao\\spe\\0,1\C,0,-5.769
 7637243,0.8340458577,-0.0000619564\O,0,-4.3356360167,0.8927041594,-0.0
 000159862\C,0,-3.7147101245,-0.3076545091,0.0000976426\O,0,-4.31167011
 65,-1.3665079381,0.0002907814\C,0,-2.2325773879,-0.1781222702,-0.00006
 68463\C,0,-1.4740784036,-1.3542697221,-0.0000831762\C,0,-0.0833496919,
 -1.2977534899,-0.0002344302\C,0,0.5417822615,-0.0502177484,-0.00035282

 Normal termination of Gaussian 16 at Tue Sep 17 10:59:03 2024.
