 Gaussian 16, Revision C.02,

 ----------------------------------------------------------------------
 #p B3LYP/gen pseudo=read EmpiricalDispersion=GD3BJ opt freq scf(xqc,ti
 ght) integral(grid=ultrafine)
 ----------------------------------------------------------------------

 ----------------------------------
 opt-freq conformers_unique/conf_ab
 ----------------------------------
 Symbolic Z-matrix:
 Charge =  0 Multiplicity = 1

 SCF Done:  E(RB3LYP) =  -470.929551778     A.U. after   14 cycles
 SCF Done:  E(RB3LYP) =  -470.930910308     A.U. after   12 cycles
 SCF Done:  E(RB3LYP) =  -470.930964195     A.U. after   12 cycles
 SCF Done:  E(RB3LYP) =  -470.931275663     A.U. after   12 cycles
 SCF Done:  E(RB3LYP) =  -470.932328467     A.U. after   15 cycles
 SCF Done:  E(RB3LYP) =  -470.933763888     A.U. after   13 cycles
 SCF Done:  E(RB3LYP) =  -470.935509149     A.U. after   15 cycles
 SCF Done:  E(RB3LYP) =  -470.940416679     A.U. after   12 cycles
 SCF Done:  E(RB3LYP) =  -470.942439942     A.U. after   13 cycles
 SCF Done:  E(RB3LYP) =  -470.943532350     A.U. after   13 cycles
 SCF Done:  E(RB3LYP) =  -470.943167444     A.U. after   12 cycles
 SCF Done:  E(RB3LYP) =  -470.943647567     A.U. after    9 cycles
 SCF Done:  E(RB3LYP) =  -470.943842812     A.U. after   12 cycles
 SCF Done:  E(RB3LYP) =  -470.943866117     A.U. after   10 cycles
 SCF Done:  E(RB3LYP) =  -470.943886768     A.U. after   10 cycles
 SCF Done:  E(RB3LYP) =  -470.943887278     A.U. after    8 cycles
 SCF Done:  E(RB3LYP) =  -470.943887303     A.U. after    7 cycles
 Optimization completed.
    -- Stationary point found.
 Normal termination of Gaussian 16 at Tue Sep 17 09:49:34 2024.

 ------------------------------------------------------------------
 #P Geom=AllCheck Guess=TCheck SCRF=Check GenChk RB3LYP/ChkBas Freq
 ------------------------------------------------------------------

 Structure from the checkpoint file:  "smiles_00089_conf_1.chk"
 ----------------------------------
 opt-freq conformers_unique/conf_ab
 ----------------------------------
 Charge =  0 Multiplicity = 1

 SCF Done:  E(RB3LYP) =  -470.943887303     A.U. after    1 cycles

                      1                      2                      3
                      A                      A                      A
 Frequencies --     53.4950                69.3099               113.5635
 Red. masses --      4.6776                 5.0644                 5.5647
 Frc consts  --      0.0079                 0.0143                 0.0423
 IR Inten    --      0.3841                 0.7682                 0.5268

                      4                      5                      6
                      A                      A                      A
 Frequencies --    123.9040               149.3908               195.3723
 Red. masses --      1.2469                 3.0094                13.8081
 Frc consts  --      0.0113                 0.0396                 0.3105
 IR Inten    --      0.9882                 1.9676                 0.5272

                      7                      8                      9
                      A                      A                      A
 Frequencies --    235.7996               266.1564               335.6926
 Red. masses --      4.8961                 6.4273                 4.4739
 Frc consts  --      0.1604                 0.2683                 0.2970
 IR Inten    --      2.0237                 4.5480                20.7166

                     10                     11                     12
                      A                      A                      A
 Frequencies --    417.4146               422.2213               478.4390
 Red. masses --      2.9787                 6.0920                 3.6232
 Frc consts  --      0.3058                 0.6399                 0.4886
 IR Inten    --      0.0002                 3.8281                 4.9269

                     13                     14                     15
                      A                      A                      A
 Frequencies --    494.8131               641.6620               695.6436
 Red. masses --      7.1410                 7.0854                 4.7770
 Frc consts  --      1.0301                 1.7188                 1.3620
 IR Inten    --     11.7415                 1.5619                12.1469

                     16                     17                     18
                      A                      A                      A
 Frequencies --    708.0621               764.8806               838.0599
 Red. masses --      6.8004                 3.1051                 5.2990
 Frc consts  --      2.0088                 1.0703                 2.1928
 IR Inten    --      6.8384                34.6920                24.2655

                     19                     20                     21
                      A                      A                      A
 Frequencies --    850.3608               861.8303               983.1080
 Red. masses --      1.3195                 1.6540                 1.3354
 Frc consts  --      0.5621                 0.7238                 0.7604
 IR Inten    --      1.9617                12.4288                 0.0142

                     22                     23                     24
                      A                      A                      A
 Frequencies --    996.1859              1003.6437              1024.5186
 Red. masses --      1.3351                 7.4085                 5.7384
 Frc consts  --      0.7806                 4.3968                 3.5488
 IR Inten    --      0.1454                 6.2197                98.1694

                     25                     26                     27
                      A                      A                      A
 Frequencies --   1080.2670              1132.8522              1149.2888
 Red. masses --      2.3664                 1.4053                 3.1563
 Frc consts  --      1.6271                 1.0626                 2.4563
 IR Inten    --     10.3232                30.3077               104.3733

                     28                     29                     30
                      A                      A                      A
 Frequencies --   1180.1911              1207.9030              1219.3721
 Red. masses --      1.2767                 1.1597                 1.6560
 Frc consts  --      1.0477                 0.9969                 1.4507
 IR Inten    --      0.8072                45.9877                53.6192

                     31                     32                     33
                      A                      A                      A
 Frequencies --   1319.1894              1327.5798              1350.4275
 Red. masses --      4.6620                 1.3331                 7.7070
 Frc consts  --      4.7801                 1.3843                 8.2809
 IR Inten    --    499.0021                 3.6152                25.7222

                     34                     35                     36
                      A                      A                      A
 Frequencies --   1434.4424              1482.4448              1494.3649
 Red. masses --      2.8922                 1.2166                 1.0463
 Frc consts  --      3.5063                 1.5753                 1.3766
 IR Inten    --     27.2219                28.7889                 6.3045

                     37                     38                     39
                      A                      A                      A
 Frequencies --   1509.4221              1525.6452              1622.3192
 Red. masses --      1.0522                 2.3439                 7.4959
 Frc consts  --      1.4125                 3.2144                11.6238
 IR Inten    --      8.1952                13.6655                 2.8532

                     40                     41                     42
                      A                      A                      A
 Frequencies --   1643.6533              1806.2057              3067.5710
 Red. masses --      5.7561                11.7468                 1.0297
 Frc consts  --      9.1622                22.5790                 5.7091
 IR Inten    --    110.3391               235.4591                39.3153

                     43                     44                     45
                      A                      A                      A
 Frequencies --   3144.4194              3177.9382              3217.0501
 Red. masses --      1.1070                 1.1072                 1.0884
 Frc consts  --      6.4486                 6.5884                 6.6369
 IR Inten    --     19.4766                15.7436                 0.2864

                     46                     47                     48
                      A                      A                      A
 Frequencies --   3219.4597              3229.9156              3235.1645
 Red. masses --      1.0890                 1.0952                 1.0947
 Frc consts  --      6.6505                 6.7319                 6.7502
 IR Inten    --      0.7620                 2.0225                 1.3825

 - Thermochemistry -
 -------------------
 Temperature   298.150 Kelvin.  Pressure   1.00000 Atm.
 Atom     1 has atomic number  6 and mass  12.00000

 Molecular mass:   261.94500 amu.
 Principal axes and moments of inertia in atomic units:
                           1         2         3
     Eigenvalues --   528.450018275.620378792.71376
           X            0.99996  -0.00869  -0.00000
           Y            0.00869   0.99996  -0.00000
           Z            0.00000   0.00000   1.00000
 This molecule is an asymmetric top.
 Rotational symmetry number  1.
 Warning -- assumption of classical behavior for rotation
           may cause significant error
 Rotational temperatures (Kelvin)      0.16390     0.01047     0.00985
 Rotational constants (GHZ):           3.41516     0.21808     0.20525
 Zero-point vibrational energy     349911.4 (Joules/Mol)
                                   83.63083 (Kcal/Mol)
 Warning -- explicit consideration of  13 degrees of freedom as
           vibrations may cause significant error
 Vibrational temperatures:     76.97    99.72   163.39   178.27   214.94
          (Kelvin)            281.10   339.26   382.94   482.99   600.57
                              607.48   688.37   711.93   923.21  1000.88
                             1018.74  1100.49  1205.78  1223.48  1239.98
                             1414.47  1433.29  1444.02  1474.05  1554.26
                             1629.92  1653.57  1698.03  1737.90  1754.40
                             1898.02  1910.09  1942.96  2063.84  2132.91
                             2150.06  2171.72  2195.06  2334.16  2364.85
                             2598.73  4413.55  4524.12  4572.34  4628.62
                             4632.08  4647.13  4654.68

 Zero-point correction=                           0.133274 (Hartree/Particle)
 Thermal correction to Energy=                    0.143714
 Thermal correction to Enthalpy=                  0.144658
 Thermal correction to Gibbs Free Energy=         0.094777
 Sum of electronic and zero-point Energies=           -470.810613
 Sum of electronic and thermal Energies=              -470.800174
 Sum of electronic and thermal Enthalpies=            -470.799229
 Sum of electronic and thermal Free Energies=         -470.849111

                     E (Thermal)             CV                S
                      KCal/Mol        Cal/Mol-Kelvin    Cal/Mol-Kelvin
 Total                   90.182             36.897            104.984
 Electronic               0.000              0.000              0.000
 Translational            0.889              2.981             42.588
 Rotational               0.889              2.981             32.020
 Vibrational             88.404             30.935             30.376
 Vibration     1          0.596              1.976              4.684
 Vibration     2          0.598              1.969              4.173
 Vibration     3          0.607              1.938              3.207
 Vibration     4          0.610              1.929              3.039
 Vibration     5          0.618              1.903              2.680
 Vibration     6          0.636              1.846              2.176
 Vibration     7          0.655              1.786              1.834
 Vibration     8          0.672              1.735              1.621
 Vibration     9          0.717              1.604              1.233
 Vibration    10          0.780              1.432              0.901
 Vibration    11          0.785              1.422              0.884
 Vibration    12          0.835              1.298              0.714
 Vibration    13          0.850              1.262              0.671

 Optimization completed.
    -- Stationary point found.
 Normal termination of Gaussian 16 at Tue Sep 17 09:50:18 2024.

 ----------------------------------------------------------------------
 #p M062X/def2tzvp geom=check guess=read scf(xqc,tight) integral(grid=u
 ltrafine) scrf(SMD, solvent=1,4-Dioxane) polar prop=efg volume
 ----------------------------------------------------------------------

 ---
 spe
 ---
 Structure from the checkpoint file:  "smiles_00089_conf_1.chk"
 Charge =  0 Multiplicity = 1

 SCF Done:  E(RM062X) =  -757.148583712     A.U. after   22 cycles

  Exact polarizability:     233.660       1.668     139.715      -0.000      -0.000      84.568
 Approx polarizability:     218.979       5.188     173.439       0.000      -0.000     107.061

 1\1\GINC-HPC-34-05\SP\RM062X\def2TZVP\C8H7I1O2\MANTIND\17-Sep-2024\0\\
 #p M062X/def2tzvp geom=check guess=read scf(xqc,tight) integral(grid=u
 ltrafine) scrf(SMD, solvent=1,4-Dioxane) polar prop=efg volume\\spe\\0
 ,1\C,0,-5.7881445382,-0.0317211742,0.6375281469\O,0,-4.3642359591,-0.2
 065578733,0.6853263725\C,0,-3.6796495183,0.4071247804,-0.3051631028\O,
 0,-4.2148346849,1.0616905392,-1.1784274446\C,0,-2.2118973262,0.1876826
 006,-0.1989476883\C,0,-1.6393550243,-0.5749431351,0.8258040077\C,0,-0.
 2584299564,-0.7513566933,0.8821233667\C,0,0.5417983021,-0.1586029524,-

 Normal termination of Gaussian 16 at Tue Sep 17 10:30:39 2024.
 Gaussian 16:  ES64L-G16RevC.02  7-Dec-2021

 ----------------------------------------------------------------------
 #p M062X/def2tzvp geom=check guess=read scf(xqc,tight) integral(grid=u
 ltrafine) scrf(SMD, solvent=1,4-Dioxane) nmr=giao
 ----------------------------------------------------------------------

 ---
 spe
 ---
 Structure from the checkpoint file:  "smiles_00089_conf_1.chk"
 Charge =  0 Multiplicity = 1

                         Standard orientation:
 ---------------------------------------------------------------------
 Center     Atomic      Atomic             Coordinates (Angstroms)
 Number     Number       Type             X           Y           Z
 ---------------------------------------------------------------------
      1          6           0        5.487282   -0.777742   -0.000020
      2          8           0        4.053766   -0.851235   -0.000020
      3          6           0        3.420436    0.342594    0.000001
      4          8           0        4.006387    1.407550    0.000013
      5          6           0        1.939640    0.197763    0.000013
      6          6           0        1.307792   -1.051352    0.000033
      7          6           0       -0.082999   -1.134708    0.000028
      8          6           0       -0.833289    0.041239    0.000010
      9         53           0       -2.968293   -0.080772   -0.000007
     10          6           0       -0.221049    1.295148   -0.000001
     11          6           0        1.169026    1.366001    0.000008
     12          1           0        5.834651   -1.810462    0.000187
     13          1           0        5.843952   -0.250834   -0.888328
     14          1           0        5.843964   -0.250432    0.888040
     15          1           0        1.905917   -1.954763    0.000049
     16          1           0       -0.572275   -2.101466    0.000031
     17          1           0       -0.816062    2.200646    0.000004
     18          1           0        1.677123    2.324040   -0.000006
 ---------------------------------------------------------------------

 SCF Done:  E(RM062X) =  -757.148583712     A.U. after    1 cycles

      1  C    Isotropic =   130.6923   Anisotropy =    72.5552

      2  O    Isotropic =   137.8206   Anisotropy =   162.7292

      3  C    Isotropic =    -0.8653   Anisotropy =   104.9571

      4  O    Isotropic =  -129.1538   Anisotropy =   694.8751

      5  C    Isotropic =    33.4950   Anisotropy =   192.2704

      6  C    Isotropic =    32.3275   Anisotropy =   214.6289

      7  C    Isotropic =    26.6429   Anisotropy =   185.0352

      8  C    Isotropic =    17.7041   Anisotropy =   153.0097

      9  I    Isotropic =   433.7234   Anisotropy =    72.6379

     10  C    Isotropic =    26.2036   Anisotropy =   186.4544

     11  C    Isotropic =    29.8093   Anisotropy =   219.7515

     12  H    Isotropic =    28.0243   Anisotropy =     7.6872

     13  H    Isotropic =    27.9528   Anisotropy =     8.2601

     14  H    Isotropic =    27.9521   Anisotropy =     8.2587

     15  H    Isotropic =    23.0026   Anisotropy =     9.6037

     16  H    Isotropic =    23.4287   Anisotropy =    12.6237

     17  H    Isotropic =    23.3968   Anisotropy =    12.4630

     18  H    Isotropic =    22.7454   Anisotropy =     8.7711

 The electronic state is 1-A.
 Alpha  occ. eigenvalues --  -19.67757 -19.62193 -10.68148 -10.60946 -10.58984
 Alpha  occ. eigenvalues --  -10.57023 -10.56611 -10.56499 -10.56482 -10.56366
 Alpha  occ. eigenvalues --   -7.10942  -5.10288  -5.09247  -5.09233  -2.07119
 Alpha  occ. eigenvalues --   -2.06685  -2.06678  -2.05810  -2.05809  -1.23701
 Alpha  occ. eigenvalues --   -1.14369  -0.98620  -0.89123  -0.86488  -0.82615
 Alpha  occ. eigenvalues --   -0.78339  -0.71237  -0.70583  -0.65563  -0.62567
 Alpha  occ. eigenvalues --   -0.57240  -0.57091  -0.53979  -0.53488  -0.53177
 Alpha  occ. eigenvalues --   -0.50824  -0.48442  -0.48081  -0.45450  -0.43889
 Alpha  occ. eigenvalues --   -0.42152  -0.40185  -0.38274  -0.36566  -0.36046
 Alpha  occ. eigenvalues --   -0.32864  -0.32671  -0.30030
 Alpha virt. eigenvalues --   -0.03108  -0.00872   0.00230   0.08007   0.08317
 Alpha virt. eigenvalues --    0.09652   0.10990   0.11457   0.13013   0.13602
 Alpha virt. eigenvalues --    0.15105   0.15726   0.15761   0.17403   0.17979

 Mulliken charges:
               1
     1  C   -0.268790
     2  O   -0.279804
     3  C    0.375947
     4  O   -0.368659
     5  C    0.038616
     6  C   -0.180831
     7  C   -0.183549
     8  C    0.079152
     9  I   -0.086476
    10  C   -0.184817
    11  C   -0.170614
    12  H    0.156073
    13  H    0.160947
    14  H    0.160949
    15  H    0.181897
    16  H    0.190361
    17  H    0.191181
    18  H    0.188417
 Sum of Mulliken charges =  -0.00000

 Dipole moment (field-independent basis, Debye):
    X=              0.9534    Y=             -1.8897    Z=              0.0000  Tot=              2.1166
 Quadrupole moment (field-independent basis, Debye-Ang):
   XX=            -77.2863   YY=            -81.7841   ZZ=            -87.2402
   XY=            -10.6255   XZ=             -0.0001   YZ=             -0.0001

 1\1\GINC-HPC-34-05\SP\RM062X\def2TZVP\C8H7I1O2\MANTIND\17-Sep-2024\0\\
 #p M062X/def2tzvp geom=check guess=read scf(xqc,tight) integral(grid=u
 ltrafine) scrf(SMD, solvent=1,4-Dioxane) nmr=giao\\spe\\0,1\C,0,-5.788
 1445382,-0.0317211742,0.6375281469\O,0,-4.3642359591,-0.2065578733,0.6
 853263725\C,0,-3.6796495183,0.4071247804,-0.3051631028\O,0,-4.21483468
 49,1.0616905392,-1.1784274446\C,0,-2.2118973262,0.1876826006,-0.198947
 6883\C,0,-1.6393550243,-0.5749431351,0.8258040077\C,0,-0.2584299564,-0
 .7513566933,0.8821233667\C,0,0.5417983021,-0.1586029524,-0.094639339\I

 Normal termination of Gaussian 16 at Tue Sep 17 10:42:00 2024.
