 Gaussian 16, Revision C.02,

 ----------------------------------------------------------------------
 #p B3LYP/6-31G(d,p) EmpiricalDispersion=GD3BJ opt freq scf(xqc,tight)
 integral(grid=ultrafine)
 ----------------------------------------------------------------------

 ----------------------------------
 opt-freq conformers_unique/conf_aa
 ----------------------------------
 Symbolic Z-matrix:
 Charge =  0 Multiplicity = 1

 SCF Done:  E(RB3LYP) =  -3506.89568456     A.U. after   15 cycles
 SCF Done:  E(RB3LYP) =  -3506.89692366     A.U. after   13 cycles
 SCF Done:  E(RB3LYP) =  -3506.89705388     A.U. after   13 cycles
 SCF Done:  E(RB3LYP) =  -3506.89810332     A.U. after   12 cycles
 SCF Done:  E(RB3LYP) =  -3506.89820609     A.U. after   11 cycles
 SCF Done:  E(RB3LYP) =  -3506.89820917     A.U. after    9 cycles
 SCF Done:  E(RB3LYP) =  -3506.89821031     A.U. after    8 cycles
 SCF Done:  E(RB3LYP) =  -3506.89821049     A.U. after    8 cycles
 SCF Done:  E(RB3LYP) =  -3506.89821055     A.U. after    7 cycles
 SCF Done:  E(RB3LYP) =  -3506.89821058     A.U. after    7 cycles
 SCF Done:  E(RB3LYP) =  -3506.89821061     A.U. after    7 cycles
 SCF Done:  E(RB3LYP) =  -3506.89821062     A.U. after    7 cycles
 Optimization completed.
    -- Stationary point found.
 Normal termination of Gaussian 16 at Tue Sep 17 09:48:04 2024.

 ----------------------------------------------------------------------
 #P Geom=AllCheck Guess=TCheck SCRF=Check GenChk RB3LYP/6-31G(d,p) Freq
 ----------------------------------------------------------------------

 Structure from the checkpoint file:  "smiles_00077_conf_0.chk"
 ----------------------------------
 opt-freq conformers_unique/conf_aa
 ----------------------------------
 Charge =  0 Multiplicity = 1

 SCF Done:  E(RB3LYP) =  -3506.89821062     A.U. after    1 cycles

                      1                      2                      3
                      A                      A                      A
 Frequencies --     21.3113                74.7874                99.6610
 Red. masses --      6.6446                10.1592                 3.5079
 Frc consts  --      0.0018                 0.0335                 0.0205
 IR Inten    --      2.2039                 0.0315                 0.1533

                      4                      5                      6
                      A                      A                      A
 Frequencies --    117.7578               134.9557               178.8780
 Red. masses --      4.9847                 1.1837                 6.8789
 Frc consts  --      0.0407                 0.0127                 0.1297
 IR Inten    --      0.4949                 0.1813                 2.4314

                      7                      8                      9
                      A                      A                      A
 Frequencies --    203.9425               251.3253               274.3805
 Red. masses --      6.1113                12.1461                13.2923
 Frc consts  --      0.1498                 0.4520                 0.5896
 IR Inten    --      3.2660                 0.8490                 1.2659

                     10                     11                     12
                      A                      A                      A
 Frequencies --    322.8489               344.3061               374.3688
 Red. masses --      7.0445                 5.8312                 6.8425
 Frc consts  --      0.4326                 0.4073                 0.5650
 IR Inten    --      1.7050                 6.3585                16.7230

                     13                     14                     15
                      A                      A                      A
 Frequencies --    455.5540               501.3476               526.6791
 Red. masses --      5.1195                 9.0905                 4.7262
 Frc consts  --      0.6260                 1.3462                 0.7724
 IR Inten    --      3.8041                12.0026                14.5385

                     16                     17                     18
                      A                      A                      A
 Frequencies --    570.3816               664.2132               730.2311
 Red. masses --      7.0640                 8.6624                 7.5051
 Frc consts  --      1.3540                 2.2517                 2.3579
 IR Inten    --     21.2331                 5.7431                 1.4865

                     19                     20                     21
                      A                      A                      A
 Frequencies --    782.7864               785.6445               874.2430
 Red. masses --      6.9114                 7.2224                 6.5734
 Frc consts  --      2.4952                 2.6265                 2.9601
 IR Inten    --     19.6177                16.9012                12.6744

                     22                     23                     24
                      A                      A                      A
 Frequencies --    952.1362               983.1800              1005.3414
 Red. masses --      1.4980                 1.4036                 7.2764
 Frc consts  --      0.8001                 0.7994                 4.3331
 IR Inten    --      8.5580                 4.8787                45.7692

                     25                     26                     27
                      A                      A                      A
 Frequencies --   1085.9705              1136.8159              1169.3116
 Red. masses --      7.0055                 2.4581                 2.7026
 Frc consts  --      4.8677                 1.8717                 2.1772
 IR Inten    --     82.6874                12.9517                59.7633

                     28                     29                     30
                      A                      A                      A
 Frequencies --   1178.1259              1216.4413              1256.4113
 Red. masses --      1.2762                 1.6683                 2.3522
 Frc consts  --      1.0436                 1.4545                 2.1877
 IR Inten    --      0.8036                 3.5942                38.6671

                     31                     32                     33
                      A                      A                      A
 Frequencies --   1302.4732              1325.4320              1427.8752
 Red. masses --      7.8085                 3.1261                 3.6075
 Frc consts  --      7.8047                 3.2357                 4.3335
 IR Inten    --     35.9832               516.5390                18.7905

                     34                     35                     36
                      A                      A                      A
 Frequencies --   1444.6571              1483.3127              1495.8899
 Red. masses --      2.5029                 1.2900                 1.0468
 Frc consts  --      3.0777                 1.6722                 1.3801
 IR Inten    --    195.1044                32.9057                 7.0598

                     37                     38                     39
                      A                      A                      A
 Frequencies --   1507.0454              1579.6950              1625.9752
 Red. masses --      1.0533                 6.7237                 7.3279
 Frc consts  --      1.4094                 9.8857                11.4145
 IR Inten    --      7.2194                19.9566                28.9819

                     40                     41                     42
                      A                      A                      A
 Frequencies --   1795.2301              3070.7752              3150.5744
 Red. masses --     11.5583                 1.0297                 1.1072
 Frc consts  --     21.9475                 5.7209                 6.4755
 IR Inten    --    211.0521                29.9579                16.1557

                     43                     44                     45
                      A                      A                      A
 Frequencies --   3186.5555              3199.5255              3237.9355
 Red. masses --      1.1074                 1.0924                 1.0921
 Frc consts  --      6.6249                 6.5890                 6.7461
 IR Inten    --     11.4060                 4.3113                 5.0805

 - Thermochemistry -
 -------------------
 Temperature   298.150 Kelvin.  Pressure   1.00000 Atm.
 Atom     1 has atomic number  6 and mass  12.00000

 Molecular mass:   248.91922 amu.
 Principal axes and moments of inertia in atomic units:
                           1         2         3
     Eigenvalues --  1628.802026037.963717612.05727
           X            0.99925   0.03875  -0.00279
           Y           -0.03875   0.99925  -0.00176
           Z            0.00272   0.00187   0.99999
 This molecule is an asymmetric top.
 Rotational symmetry number  1.
 Warning -- assumption of classical behavior for rotation
           may cause significant error
 Rotational temperatures (Kelvin)      0.05318     0.01434     0.01138
 Rotational constants (GHZ):           1.10802     0.29890     0.23709
 Zero-point vibrational energy     293720.8 (Joules/Mol)
                                   70.20097 (Kcal/Mol)
 Warning -- explicit consideration of  16 degrees of freedom as
           vibrations may cause significant error
 Vibrational temperatures:     30.66   107.60   143.39   169.43   194.17
          (Kelvin)            257.37   293.43   361.60   394.77   464.51
                              495.38   538.63   655.44   721.33   757.77
                              820.65   955.65  1050.64  1126.25  1130.37
                             1257.84  1369.91  1414.58  1446.46  1562.47
                             1635.62  1682.38  1695.06  1750.19  1807.70
                             1873.97  1907.00  2054.39  2078.54  2134.16
                             2152.25  2168.30  2272.83  2339.42  2582.94
                             4418.16  4532.97  4584.74  4603.40  4658.67

 Zero-point correction=                           0.111872 (Hartree/Particle)
 Thermal correction to Energy=                    0.123284
 Thermal correction to Enthalpy=                  0.124228
 Thermal correction to Gibbs Free Energy=         0.071548
 Sum of electronic and zero-point Energies=          -3506.786338
 Sum of electronic and thermal Energies=             -3506.774927
 Sum of electronic and thermal Enthalpies=           -3506.773983
 Sum of electronic and thermal Free Energies=        -3506.826663

                     E (Thermal)             CV                S
                      KCal/Mol        Cal/Mol-Kelvin    Cal/Mol-Kelvin
 Total                   77.362             39.466            110.875
 Electronic               0.000              0.000              0.000
 Translational            0.889              2.981             42.436
 Rotational               0.889              2.981             32.682
 Vibrational             75.584             33.504             35.757
 Vibration     1          0.593              1.985              6.508
 Vibration     2          0.599              1.966              4.023
 Vibration     3          0.604              1.949              3.461
 Vibration     4          0.608              1.935              3.137
 Vibration     5          0.613              1.918              2.874
 Vibration     6          0.629              1.868              2.340
 Vibration     7          0.640              1.834              2.097
 Vibration     8          0.663              1.761              1.721
 Vibration     9          0.677              1.721              1.568
 Vibration    10          0.708              1.630              1.296
 Vibration    11          0.723              1.587              1.192
 Vibration    12          0.745              1.525              1.062
 Vibration    13          0.814              1.349              0.779
 Vibration    14          0.857              1.247              0.655
 Vibration    15          0.882              1.191              0.595
 Vibration    16          0.926              1.095              0.504

                           ! Non-Optimized Parameters !
 Normal termination of Gaussian 16 at Tue Sep 17 09:49:06 2024.

 ----------------------------------------------------------------------
 #p M062X/def2tzvp geom=check guess=read scf(xqc,tight) integral(grid=u
 ltrafine) scrf(SMD, solvent=1,4-Dioxane) polar prop=efg volume
 ----------------------------------------------------------------------

 ---
 spe
 ---
 Structure from the checkpoint file:  "smiles_00077_conf_0.chk"
 Charge =  0 Multiplicity = 1

 SCF Done:  E(RM062X) =  -3509.35202835     A.U. after   12 cycles

  Exact polarizability:     207.400      -8.039     146.870       0.286       2.371      80.747
 Approx polarizability:     206.541     -13.314     173.862       0.387       4.802     103.110

 Normal termination of Gaussian 16 at Tue Sep 17 10:24:32 2024.
 Gaussian 16:  ES64L-G16RevC.02  7-Dec-2021

 ----------------------------------------------------------------------
 #p M062X/def2tzvp geom=check guess=read scf(xqc,tight) integral(grid=u
 ltrafine) scrf(SMD, solvent=1,4-Dioxane) nmr=giao
 ----------------------------------------------------------------------

 ---
 spe
 ---
 Structure from the checkpoint file:  "smiles_00077_conf_0.chk"
 Charge =  0 Multiplicity = 1

                         Standard orientation:
 ---------------------------------------------------------------------
 Center     Atomic      Atomic             Coordinates (Angstroms)
 Number     Number       Type             X           Y           Z
 ---------------------------------------------------------------------
      1          6           0       -4.159880   -1.705918    0.258528
      2          8           0       -3.102039   -0.730829    0.287969
      3          6           0       -1.903702   -1.179140   -0.099440
      4          8           0       -1.685039   -2.328854   -0.428082
      5          6           0       -0.818797   -0.144157   -0.049854
      6          6           0        0.482747   -0.661166   -0.046258
      7          6           0        1.565708    0.201806    0.016105
      8         35           0        3.344963   -0.462429    0.035710
      9          6           0        1.330823    1.574674    0.065521
     10          7           0        0.097955    2.081269    0.036116
     11          6           0       -0.940758    1.260567   -0.021690
     12         17           0       -2.487734    2.074821   -0.112643
     13          1           0       -4.286341   -2.098953   -0.752356
     14          1           0       -5.052108   -1.172433    0.581891
     15          1           0       -3.933377   -2.532287    0.935703
     16          1           0        0.610023   -1.735600   -0.094018
     17          1           0        2.153659    2.280936    0.124478
 ---------------------------------------------------------------------

 SCF Done:  E(RM062X) =  -3509.35202835     A.U. after    1 cycles

      1  C    Isotropic =   129.8547   Anisotropy =    73.7057

      2  O    Isotropic =   119.2980   Anisotropy =   187.5780

      3  C    Isotropic =    -0.1101   Anisotropy =   104.8331

      4  O    Isotropic =  -146.1453   Anisotropy =   692.7955

      5  C    Isotropic =    37.1271   Anisotropy =   164.7715

      6  C    Isotropic =    13.8092   Anisotropy =   215.0696

      7  C    Isotropic =    28.7085   Anisotropy =   145.1861

      8  Br   Isotropic =  2122.9654   Anisotropy =  1202.0945

      9  C    Isotropic =     7.0496   Anisotropy =   176.6033

     10  N    Isotropic =  -138.9250   Anisotropy =   555.9864

     11  C    Isotropic =     6.0659   Anisotropy =   131.6439

     12  Cl   Isotropic =   570.9597   Anisotropy =   557.1546

     13  H    Isotropic =    27.8621   Anisotropy =     8.2735

     14  H    Isotropic =    27.8824   Anisotropy =     7.5940

     15  H    Isotropic =    27.8931   Anisotropy =     8.4652

     16  H    Isotropic =    22.3270   Anisotropy =    13.4498

     17  H    Isotropic =    22.4787   Anisotropy =    10.9387

 The electronic state is 1-A.
 Alpha  occ. eigenvalues -- -485.39321-102.65535 -63.37792 -57.19745 -57.19497
 Alpha  occ. eigenvalues --  -57.19490 -19.68727 -19.63202 -14.78423 -10.69683
 Alpha  occ. eigenvalues --  -10.66667 -10.62513 -10.61423 -10.59975 -10.59512
 Alpha  occ. eigenvalues --  -10.59357  -9.81809  -9.04437  -7.54010  -7.53500
 Alpha  occ. eigenvalues --   -7.53447  -6.86872  -6.85952  -6.85930  -2.90249
 Alpha  occ. eigenvalues --   -2.89916  -2.89890  -2.89033  -2.89033  -1.25027
 Alpha  occ. eigenvalues --   -1.15519  -1.10181  -0.97483  -0.95614  -0.91226
 Alpha  occ. eigenvalues --   -0.84615  -0.83018  -0.75994  -0.72898  -0.66977
 Alpha  occ. eigenvalues --   -0.63265  -0.60405  -0.59544  -0.58132  -0.56585
 Alpha  occ. eigenvalues --   -0.52652  -0.51167  -0.50647  -0.50204  -0.47902
 Alpha  occ. eigenvalues --   -0.45844  -0.44804  -0.43892  -0.39585  -0.39165
 Alpha  occ. eigenvalues --   -0.38669  -0.38032  -0.37505  -0.36558  -0.35408
 Alpha  occ. eigenvalues --   -0.31546
 Alpha virt. eigenvalues --   -0.04735  -0.02236   0.02312   0.06182   0.06750
 Alpha virt. eigenvalues --    0.08120   0.10377   0.11287   0.12507   0.13007
 Alpha virt. eigenvalues --    0.14203   0.14965   0.16359   0.16762   0.18347

 Mulliken charges:
               1
     1  C   -0.266795
     2  O   -0.262141
     3  C    0.374641
     4  O   -0.364278
     5  C   -0.035099
     6  C   -0.118906
     7  C    0.018853
     8  Br  -0.067665
     9  C   -0.039839
    10  N   -0.206168
    11  C    0.117765
    12  Cl  -0.041086
    13  H    0.164792
    14  H    0.161211
    15  H    0.163426
    16  H    0.212766
    17  H    0.188524
 Sum of Mulliken charges =  -0.00000

 Dipole moment (field-independent basis, Debye):
    X=             -0.7587    Y=             -0.9443    Z=              0.6432  Tot=              1.3716
 Quadrupole moment (field-independent basis, Debye-Ang):
   XX=            -74.1363   YY=            -95.3276   ZZ=            -88.3578
   XY=              6.9193   XZ=             -1.1860   YZ=             -2.1854

 Normal termination of Gaussian 16 at Tue Sep 17 10:37:53 2024.
