 Gaussian 16, Revision C.02,

 ----------------------------------------------------------------------
 #p B3LYP/6-31G(d,p) EmpiricalDispersion=GD3BJ opt freq scf(xqc,tight)
 integral(grid=ultrafine)
 ----------------------------------------------------------------------

 ----------------------------------
 opt-freq conformers_unique/conf_ab
 ----------------------------------
 Symbolic Z-matrix:
 Charge =  0 Multiplicity = 1

 SCF Done:  E(RB3LYP) =  -3506.89553005     A.U. after   15 cycles
 SCF Done:  E(RB3LYP) =  -3506.89725232     A.U. after   13 cycles
 SCF Done:  E(RB3LYP) =  -3506.89682312     A.U. after   13 cycles
 SCF Done:  E(RB3LYP) =  -3506.89764895     A.U. after   12 cycles
 SCF Done:  E(RB3LYP) =  -3506.89775139     A.U. after   11 cycles
 SCF Done:  E(RB3LYP) =  -3506.89775673     A.U. after   10 cycles
 SCF Done:  E(RB3LYP) =  -3506.89775992     A.U. after   10 cycles
 SCF Done:  E(RB3LYP) =  -3506.89776194     A.U. after   10 cycles
 SCF Done:  E(RB3LYP) =  -3506.89776297     A.U. after   10 cycles
 SCF Done:  E(RB3LYP) =  -3506.89776328     A.U. after    8 cycles
 Optimization completed.
    -- Stationary point found.
 Normal termination of Gaussian 16 at Tue Sep 17 09:47:41 2024.

 ----------------------------------------------------------------------
 #P Geom=AllCheck Guess=TCheck SCRF=Check GenChk RB3LYP/6-31G(d,p) Freq
 ----------------------------------------------------------------------

 Structure from the checkpoint file:  "smiles_00077_conf_1.chk"
 ----------------------------------
 opt-freq conformers_unique/conf_ab
 ----------------------------------
 Charge =  0 Multiplicity = 1

 SCF Done:  E(RB3LYP) =  -3506.89776328     A.U. after    1 cycles

                      1                      2                      3
                      A                      A                      A
 Frequencies --     26.4675                75.2336               100.0714
 Red. masses --      7.4418                 9.4118                 3.4042
 Frc consts  --      0.0031                 0.0314                 0.0201
 IR Inten    --      1.0324                 0.0813                 0.1705

                      4                      5                      6
                      A                      A                      A
 Frequencies --    109.7530               133.5003               185.4850
 Red. masses --      6.1441                 1.1592                 5.2003
 Frc consts  --      0.0436                 0.0122                 0.1054
 IR Inten    --      0.5359                 0.1423                 3.7152

                      7                      8                      9
                      A                      A                      A
 Frequencies --    200.2577               260.8281               275.8699
 Red. masses --      8.7205                12.8183                 8.8419
 Frc consts  --      0.2060                 0.5138                 0.3965
 IR Inten    --      2.0686                 0.9423                 2.7056

                     10                     11                     12
                      A                      A                      A
 Frequencies --    321.1383               353.4624               369.4445
 Red. masses --      7.8446                 5.1572                10.6459
 Frc consts  --      0.4767                 0.3796                 0.8561
 IR Inten    --      2.1396                 4.6874                 8.0335

                     13                     14                     15
                      A                      A                      A
 Frequencies --    449.6254               483.6111               524.4328
 Red. masses --      5.1857                 7.0057                 4.3579
 Frc consts  --      0.6177                 0.9654                 0.7062
 IR Inten    --      4.5035                 4.7666                11.9946

                     16                     17                     18
                      A                      A                      A
 Frequencies --    570.8103               671.2858               729.4780
 Red. masses --      7.8871                 8.5462                 7.6348
 Frc consts  --      1.5141                 2.2690                 2.3937
 IR Inten    --     33.8524                 8.3600                 0.9423

                     19                     20                     21
                      A                      A                      A
 Frequencies --    779.4205               787.3163               873.8070
 Red. masses --      6.7681                 7.1715                 7.0591
 Frc consts  --      2.4225                 2.6191                 3.1756
 IR Inten    --     11.4578                16.9946                 1.0287

                     22                     23                     24
                      A                      A                      A
 Frequencies --    947.6936               973.2804               997.1385
 Red. masses --      1.5168                 1.3799                 7.4069
 Frc consts  --      0.8026                 0.7702                 4.3391
 IR Inten    --     10.2569                 0.8922                30.2478

                     25                     26                     27
                      A                      A                      A
 Frequencies --   1090.3093              1142.6811              1162.4148
 Red. masses --      6.9421                 2.8020                 3.0823
 Frc consts  --      4.8623                 2.1556                 2.4539
 IR Inten    --    165.1597                35.6079                99.6751

                     28                     29                     30
                      A                      A                      A
 Frequencies --   1180.3772              1215.0361              1261.9057
 Red. masses --      1.2766                 1.5929                 3.5946
 Frc consts  --      1.0480                 1.3855                 3.3725
 IR Inten    --      0.7792                22.5575               200.7874

                     31                     32                     33
                      A                      A                      A
 Frequencies --   1285.3729              1311.2466              1421.9924
 Red. masses --      2.1010                 8.2505                 3.2179
 Frc consts  --      2.0452                 8.3579                 3.8337
 IR Inten    --    196.7729               107.3704                 0.8331

                     34                     35                     36
                      A                      A                      A
 Frequencies --   1448.7242              1481.6725              1495.2473
 Red. masses --      2.6439                 1.2184                 1.0461
 Frc consts  --      3.2693                 1.5759                 1.3780
 IR Inten    --    159.4425                11.7220                 6.8792

                     37                     38                     39
                      A                      A                      A
 Frequencies --   1509.6384              1582.2717              1623.8033
 Red. masses --      1.0514                 6.6715                 7.2687
 Frc consts  --      1.4118                 9.8409                11.2921
 IR Inten    --      8.5285                50.2437                21.0211

                     40                     41                     42
                      A                      A                      A
 Frequencies --   1825.5939              3069.2764              3148.6664
 Red. masses --     12.0260                 1.0296                 1.1072
 Frc consts  --     23.6145                 5.7149                 6.4672
 IR Inten    --    211.6269                31.3325                16.4781

                     43                     44                     45
                      A                      A                      A
 Frequencies --   3182.0105              3198.9875              3251.8974
 Red. masses --      1.1074                 1.0925                 1.0921
 Frc consts  --      6.6065                 6.5869                 6.8040
 IR Inten    --     12.6917                 4.2932                 1.9675

 - Thermochemistry -
 -------------------
 Temperature   298.150 Kelvin.  Pressure   1.00000 Atm.
 Atom     1 has atomic number  6 and mass  12.00000

 Molecular mass:   248.91922 amu.
 Principal axes and moments of inertia in atomic units:
                           1         2         3
     Eigenvalues --  2058.309375434.544757446.82338
           X            0.99832   0.05788  -0.00036
           Y           -0.05788   0.99832  -0.00249
           Z            0.00022   0.00250   1.00000
 This molecule is an asymmetric top.
 Rotational symmetry number  1.
 Warning -- assumption of classical behavior for rotation
           may cause significant error
 Rotational temperatures (Kelvin)      0.04208     0.01594     0.01163
 Rotational constants (GHZ):           0.87681     0.33209     0.24235
 Zero-point vibrational energy     293614.7 (Joules/Mol)
                                   70.17559 (Kcal/Mol)
 Warning -- explicit consideration of  16 degrees of freedom as
           vibrations may cause significant error
 Vibrational temperatures:     38.08   108.24   143.98   157.91   192.08
          (Kelvin)            266.87   288.13   375.27   396.92   462.05
                              508.55   531.55   646.91   695.81   754.54
                              821.27   965.83  1049.56  1121.41  1132.77
                             1257.21  1363.52  1400.33  1434.66  1568.71
                             1644.06  1672.46  1698.30  1748.17  1815.60
                             1849.36  1886.59  2045.93  2084.39  2131.80
                             2151.33  2172.03  2276.54  2336.29  2626.62
                             4416.00  4530.23  4578.20  4602.63  4678.75

 Zero-point correction=                           0.111832 (Hartree/Particle)
 Thermal correction to Energy=                    0.123246
 Thermal correction to Enthalpy=                  0.124190
 Thermal correction to Gibbs Free Energy=         0.071622
 Sum of electronic and zero-point Energies=          -3506.785931
 Sum of electronic and thermal Energies=             -3506.774517
 Sum of electronic and thermal Enthalpies=           -3506.773573
 Sum of electronic and thermal Free Energies=        -3506.826141

                     E (Thermal)             CV                S
                      KCal/Mol        Cal/Mol-Kelvin    Cal/Mol-Kelvin
 Total                   77.338             39.525            110.638
 Electronic               0.000              0.000              0.000
 Translational            0.889              2.981             42.436
 Rotational               0.889              2.981             32.788
 Vibrational             75.561             33.563             35.414
 Vibration     1          0.593              1.985              6.078
 Vibration     2          0.599              1.966              4.012
 Vibration     3          0.604              1.949              3.453
 Vibration     4          0.606              1.941              3.273
 Vibration     5          0.613              1.920              2.895
 Vibration     6          0.632              1.860              2.272
 Vibration     7          0.638              1.840              2.131
 Vibration     8          0.669              1.744              1.656
 Vibration     9          0.678              1.718              1.559
 Vibration    10          0.707              1.633              1.304
 Vibration    11          0.730              1.568              1.151
 Vibration    12          0.742              1.535              1.082
 Vibration    13          0.809              1.362              0.797
 Vibration    14          0.840              1.286              0.700
 Vibration    15          0.879              1.196              0.600
 Vibration    16          0.927              1.094              0.503

                           ! Non-Optimized Parameters !
 Normal termination of Gaussian 16 at Tue Sep 17 09:48:45 2024.

 ----------------------------------------------------------------------
 #p M062X/def2tzvp geom=check guess=read scf(xqc,tight) integral(grid=u
 ltrafine) scrf(SMD, solvent=1,4-Dioxane) polar prop=efg volume
 ----------------------------------------------------------------------

 ---
 spe
 ---
 Structure from the checkpoint file:  "smiles_00077_conf_1.chk"
 Charge =  0 Multiplicity = 1

 SCF Done:  E(RM062X) =  -3509.35213544     A.U. after   12 cycles

  Exact polarizability:     199.704      -9.459     154.131       1.292       0.077      80.587
 Approx polarizability:     210.028     -15.291     170.613       3.158      -0.254     102.909

 Normal termination of Gaussian 16 at Tue Sep 17 10:26:16 2024.
 Gaussian 16:  ES64L-G16RevC.02  7-Dec-2021

 ----------------------------------------------------------------------
 #p M062X/def2tzvp geom=check guess=read scf(xqc,tight) integral(grid=u
 ltrafine) scrf(SMD, solvent=1,4-Dioxane) nmr=giao
 ----------------------------------------------------------------------

 ---
 spe
 ---
 Structure from the checkpoint file:  "smiles_00077_conf_1.chk"
 Charge =  0 Multiplicity = 1

                         Standard orientation:
 ---------------------------------------------------------------------
 Center     Atomic      Atomic             Coordinates (Angstroms)
 Number     Number       Type             X           Y           Z
 ---------------------------------------------------------------------
      1          6           0        2.885672    3.086191   -0.144306
      2          8           0        1.805382    2.141516   -0.232318
      3          6           0        2.131263    0.872873    0.108715
      4          8           0        3.244916    0.540122    0.443456
      5          6           0        0.931576   -0.018464    0.031019
      6          6           0       -0.346032    0.554724    0.034527
      7          6           0       -1.464299   -0.266311    0.005705
      8         35           0       -3.214694    0.473432    0.019898
      9          6           0       -1.288631   -1.647623   -0.032779
     10          7           0       -0.077253   -2.205238   -0.053202
     11          6           0        0.994627   -1.427287   -0.021479
     12         17           0        2.514557   -2.282215   -0.090321
     13          1           0        3.700797    2.794101   -0.809762
     14          1           0        3.265571    3.138157    0.878503
     15          1           0        2.462254    4.042297   -0.448617
     16          1           0       -0.446635    1.631185    0.063850
     17          1           0       -2.141853   -2.319264   -0.050061
 ---------------------------------------------------------------------

 SCF Done:  E(RM062X) =  -3509.35213544     A.U. after    1 cycles

      1  C    Isotropic =   130.0561   Anisotropy =    73.2830

      2  O    Isotropic =   126.8907   Anisotropy =   167.3695

      3  C    Isotropic =     3.1823   Anisotropy =   102.0432

      4  O    Isotropic =  -168.8413   Anisotropy =   744.6321

      5  C    Isotropic =    38.7986   Anisotropy =   165.8516

      6  C    Isotropic =    16.3515   Anisotropy =   209.3706

      7  C    Isotropic =    29.6020   Anisotropy =   144.7965

      8  Br   Isotropic =  2122.4928   Anisotropy =  1206.9277

      9  C    Isotropic =     6.9345   Anisotropy =   178.0220

     10  N    Isotropic =  -140.5665   Anisotropy =   560.7498

     11  C    Isotropic =     3.8476   Anisotropy =   139.1416

     12  Cl   Isotropic =   581.0473   Anisotropy =   538.8439

     13  H    Isotropic =    27.8975   Anisotropy =     8.2426

     14  H    Isotropic =    27.9696   Anisotropy =     8.2864

     15  H    Isotropic =    27.9889   Anisotropy =     7.6561

     16  H    Isotropic =    22.5364   Anisotropy =    14.3640

     17  H    Isotropic =    22.4667   Anisotropy =    11.0061

 The electronic state is 1-A.
 Alpha  occ. eigenvalues -- -485.39443-102.65319 -63.37913 -57.19866 -57.19617
 Alpha  occ. eigenvalues --  -57.19612 -19.68587 -19.63311 -14.78399 -10.69577
 Alpha  occ. eigenvalues --  -10.66527 -10.62588 -10.61447 -10.60002 -10.59596
 Alpha  occ. eigenvalues --  -10.59522  -9.81588  -9.04556  -7.53790  -7.53280
 Alpha  occ. eigenvalues --   -7.53222  -6.86991  -6.86070  -6.86051  -2.90368
 Alpha  occ. eigenvalues --   -2.90034  -2.90011  -2.89153  -2.89153  -1.24730
 Alpha  occ. eigenvalues --   -1.15534  -1.10158  -0.97446  -0.95736  -0.91419
 Alpha  occ. eigenvalues --   -0.84286  -0.82912  -0.76657  -0.72389  -0.66956
 Alpha  occ. eigenvalues --   -0.62731  -0.60854  -0.59563  -0.58014  -0.56408
 Alpha  occ. eigenvalues --   -0.52685  -0.51345  -0.50771  -0.50254  -0.47864
 Alpha  occ. eigenvalues --   -0.46626  -0.44330  -0.43908  -0.40295  -0.39162
 Alpha  occ. eigenvalues --   -0.38809  -0.37722  -0.36861  -0.36412  -0.35522
 Alpha  occ. eigenvalues --   -0.31524
 Alpha virt. eigenvalues --   -0.04765  -0.02288   0.02163   0.06322   0.06860
 Alpha virt. eigenvalues --    0.08163   0.10179   0.11123   0.11708   0.13150
 Alpha virt. eigenvalues --    0.14540   0.14938   0.16570   0.17049   0.17416

 Mulliken charges:
               1
     1  C   -0.265025
     2  O   -0.280119
     3  C    0.350874
     4  O   -0.326190
     5  C   -0.030844
     6  C   -0.114041
     7  C    0.014077
     8  Br  -0.069762
     9  C   -0.040623
    10  N   -0.204950
    11  C    0.111114
    12  Cl  -0.026666
    13  H    0.163898
    14  H    0.163939
    15  H    0.158638
    16  H    0.206938
    17  H    0.188741
 Sum of Mulliken charges =  -0.00000

 Dipole moment (field-independent basis, Debye):
    X=             -1.6389    Y=              3.6664    Z=             -0.3843  Tot=              4.0344
 Quadrupole moment (field-independent basis, Debye-Ang):
   XX=            -91.6104   YY=            -82.8783   ZZ=            -88.4158
   XY=             10.6791   XZ=             -2.4456   YZ=             -0.1645

 Normal termination of Gaussian 16 at Tue Sep 17 10:39:42 2024.
