 Gaussian 16, Revision C.02,

 ----------------------------------------------------------------------
 #p B3LYP/6-31G(d,p) EmpiricalDispersion=GD3BJ opt freq scf(xqc,tight)
 integral(grid=ultrafine)
 ----------------------------------------------------------------------

 ----------------------------------
 opt-freq conformers_unique/conf_ac
 ----------------------------------
 Symbolic Z-matrix:
 Charge =  0 Multiplicity = 1

 SCF Done:  E(RB3LYP) =  -3506.89548532     A.U. after   15 cycles
 SCF Done:  E(RB3LYP) =  -3506.89716166     A.U. after   12 cycles
 SCF Done:  E(RB3LYP) =  -3506.89762160     A.U. after   11 cycles
 SCF Done:  E(RB3LYP) =  -3506.89765413     A.U. after   11 cycles
 SCF Done:  E(RB3LYP) =  -3506.89765397     A.U. after   12 cycles
 SCF Done:  E(RB3LYP) =  -3506.89769559     A.U. after   10 cycles
 SCF Done:  E(RB3LYP) =  -3506.89769789     A.U. after   10 cycles
 SCF Done:  E(RB3LYP) =  -3506.89770232     A.U. after   10 cycles
 SCF Done:  E(RB3LYP) =  -3506.89770518     A.U. after   11 cycles
 SCF Done:  E(RB3LYP) =  -3506.89770727     A.U. after   10 cycles
 SCF Done:  E(RB3LYP) =  -3506.89752635     A.U. after   14 cycles
 SCF Done:  E(RB3LYP) =  -3506.89774448     A.U. after   12 cycles
 SCF Done:  E(RB3LYP) =  -3506.89774800     A.U. after   12 cycles
 SCF Done:  E(RB3LYP) =  -3506.89646520     A.U. after   14 cycles
 SCF Done:  E(RB3LYP) =  -3506.89775800     A.U. after   11 cycles
 SCF Done:  E(RB3LYP) =  -3506.89776242     A.U. after   11 cycles
 SCF Done:  E(RB3LYP) =  -3506.89776324     A.U. after    8 cycles
 Optimization completed.
    -- Stationary point found.
 Normal termination of Gaussian 16 at Tue Sep 17 09:51:31 2024.

 ----------------------------------------------------------------------
 #P Geom=AllCheck Guess=TCheck SCRF=Check GenChk RB3LYP/6-31G(d,p) Freq
 ----------------------------------------------------------------------

 Structure from the checkpoint file:  "smiles_00077_conf_2.chk"
 ----------------------------------
 opt-freq conformers_unique/conf_ac
 ----------------------------------
 Charge =  0 Multiplicity = 1

 SCF Done:  E(RB3LYP) =  -3506.89776324     A.U. after    1 cycles

                      1                      2                      3
                      A                      A                      A
 Frequencies --     26.4037                75.3357               100.1787
 Red. masses --      7.4602                 9.4323                 3.4085
 Frc consts  --      0.0031                 0.0315                 0.0202
 IR Inten    --      1.0339                 0.0814                 0.1693

                      4                      5                      6
                      A                      A                      A
 Frequencies --    109.7650               133.6949               185.5763
 Red. masses --      6.1418                 1.1583                 5.2035
 Frc consts  --      0.0436                 0.0122                 0.1056
 IR Inten    --      0.5357                 0.1426                 3.7032

                      7                      8                      9
                      A                      A                      A
 Frequencies --    200.3156               260.8452               275.8833
 Red. masses --      8.7041                12.8450                 8.8322
 Frc consts  --      0.2058                 0.5149                 0.3961
 IR Inten    --      2.0824                 0.9383                 2.7053

                     10                     11                     12
                      A                      A                      A
 Frequencies --    321.0708               353.4475               369.4592
 Red. masses --      7.8423                 5.1576                10.6378
 Frc consts  --      0.4763                 0.3796                 0.8555
 IR Inten    --      2.1413                 4.6819                 8.0464

                     13                     14                     15
                      A                      A                      A
 Frequencies --    449.5860               483.6407               524.4245
 Red. masses --      5.1873                 7.0002                 4.3609
 Frc consts  --      0.6178                 0.9647                 0.7066
 IR Inten    --      4.5000                 4.7702                12.0077

                     16                     17                     18
                      A                      A                      A
 Frequencies --    570.8326               671.2908               729.5026
 Red. masses --      7.8831                 8.5463                 7.6361
 Frc consts  --      1.5134                 2.2691                 2.3943
 IR Inten    --     33.8299                 8.3613                 0.9451

                     19                     20                     21
                      A                      A                      A
 Frequencies --    779.4334               787.3190               873.8186
 Red. masses --      6.7680                 7.1705                 7.0577
 Frc consts  --      2.4225                 2.6188                 3.1751
 IR Inten    --     11.4574                16.9945                 1.0312

                     22                     23                     24
                      A                      A                      A
 Frequencies --    947.7030               973.2835               996.9839
 Red. masses --      1.5168                 1.3800                 7.4056
 Frc consts  --      0.8026                 0.7702                 4.3369
 IR Inten    --     10.2724                 0.8802                30.1587

                     25                     26                     27
                      A                      A                      A
 Frequencies --   1090.2258              1142.5776              1162.3224
 Red. masses --      6.9379                 2.8069                 3.0781
 Frc consts  --      4.8586                 2.1590                 2.4501
 IR Inten    --    165.3506                35.4375                99.6926

                     28                     29                     30
                      A                      A                      A
 Frequencies --   1180.3373              1215.0092              1261.8822
 Red. masses --      1.2766                 1.5927                 3.6071
 Frc consts  --      1.0479                 1.3853                 3.3841
 IR Inten    --      0.7814                22.4391               201.4711

                     31                     32                     33
                      A                      A                      A
 Frequencies --   1285.3012              1311.4499              1422.0716
 Red. masses --      2.0970                 8.2557                 3.2181
 Frc consts  --      2.0411                 8.3658                 3.8343
 IR Inten    --    196.2415               107.5158                 0.7911

                     34                     35                     36
                      A                      A                      A
 Frequencies --   1448.7290              1481.6074              1495.2279
 Red. masses --      2.6405                 1.2185                 1.0461
 Frc consts  --      3.2652                 1.5760                 1.3780
 IR Inten    --    159.2785                11.7177                 6.8835

                     37                     38                     39
                      A                      A                      A
 Frequencies --   1509.6079              1582.2059              1623.9455
 Red. masses --      1.0514                 6.6813                 7.2680
 Frc consts  --      1.4117                 9.8545                11.2929
 IR Inten    --      8.5359                50.2027                20.9931

                     40                     41                     42
                      A                      A                      A
 Frequencies --   1825.6649              3069.2935              3148.7397
 Red. masses --     12.0267                 1.0296                 1.1072
 Frc consts  --     23.6177                 5.7149                 6.4675
 IR Inten    --    211.6075                31.3074                16.4662

                     43                     44                     45
                      A                      A                      A
 Frequencies --   3182.0731              3198.7414              3251.9337
 Red. masses --      1.1074                 1.0924                 1.0921
 Frc consts  --      6.6068                 6.5858                 6.8042
 IR Inten    --     12.6758                 4.2958                 1.9663

 - Thermochemistry -
 -------------------
 Temperature   298.150 Kelvin.  Pressure   1.00000 Atm.
 Atom     1 has atomic number  6 and mass  12.00000

 Molecular mass:   248.91922 amu.
 Principal axes and moments of inertia in atomic units:
                           1         2         3
     Eigenvalues --  2057.994245435.048797446.85550
           X            0.99832  -0.05787  -0.00036
           Y            0.05787   0.99832   0.00249
           Z            0.00022  -0.00251   1.00000
 This molecule is an asymmetric top.
 Rotational symmetry number  1.
 Warning -- assumption of classical behavior for rotation
           may cause significant error
 Rotational temperatures (Kelvin)      0.04209     0.01594     0.01163
 Rotational constants (GHZ):           0.87694     0.33206     0.24235
 Zero-point vibrational energy     293615.9 (Joules/Mol)
                                   70.17588 (Kcal/Mol)
 Warning -- explicit consideration of  16 degrees of freedom as
           vibrations may cause significant error
 Vibrational temperatures:     37.99   108.39   144.13   157.93   192.36
          (Kelvin)            267.00   288.21   375.30   396.93   461.95
                              508.53   531.57   646.85   695.85   754.53
                              821.30   965.84  1049.59  1121.43  1132.78
                             1257.23  1363.53  1400.34  1434.44  1568.59
                             1643.91  1672.32  1698.24  1748.13  1815.57
                             1849.26  1886.88  2046.04  2084.40  2131.70
                             2151.30  2171.99  2276.44  2336.50  2626.72
                             4416.03  4530.33  4578.29  4602.28  4678.81

 Zero-point correction=                           0.111832 (Hartree/Particle)
 Thermal correction to Energy=                    0.123246
 Thermal correction to Enthalpy=                  0.124190
 Thermal correction to Gibbs Free Energy=         0.071624
 Sum of electronic and zero-point Energies=          -3506.785931
 Sum of electronic and thermal Energies=             -3506.774518
 Sum of electronic and thermal Enthalpies=           -3506.773573
 Sum of electronic and thermal Free Energies=        -3506.826139

                     E (Thermal)             CV                S
                      KCal/Mol        Cal/Mol-Kelvin    Cal/Mol-Kelvin
 Total                   77.338             39.524            110.634
 Electronic               0.000              0.000              0.000
 Translational            0.889              2.981             42.436
 Rotational               0.889              2.981             32.788
 Vibrational             75.560             33.563             35.410
 Vibration     1          0.593              1.985              6.083
 Vibration     2          0.599              1.965              4.009
 Vibration     3          0.604              1.949              3.451
 Vibration     4          0.606              1.941              3.273
 Vibration     5          0.613              1.920              2.892
 Vibration     6          0.632              1.860              2.272
 Vibration     7          0.638              1.839              2.130
 Vibration     8          0.669              1.744              1.656
 Vibration     9          0.678              1.718              1.559
 Vibration    10          0.707              1.633              1.305
 Vibration    11          0.730              1.568              1.151
 Vibration    12          0.742              1.535              1.082
 Vibration    13          0.808              1.362              0.797
 Vibration    14          0.840              1.286              0.700
 Vibration    15          0.879              1.196              0.600
 Vibration    16          0.927              1.094              0.503

 Optimization completed.
    -- Stationary point found.
 Normal termination of Gaussian 16 at Tue Sep 17 09:53:16 2024.

 ----------------------------------------------------------------------
 #p M062X/def2tzvp geom=check guess=read scf(xqc,tight) integral(grid=u
 ltrafine) scrf(SMD, solvent=1,4-Dioxane) polar prop=efg volume
 ----------------------------------------------------------------------

 ---
 spe
 ---
 Structure from the checkpoint file:  "smiles_00077_conf_2.chk"
 Charge =  0 Multiplicity = 1

 SCF Done:  E(RM062X) =  -3509.35213695     A.U. after   12 cycles

  Exact polarizability:     199.701       9.453     154.128       1.298      -0.082      80.591
 Approx polarizability:     210.016      15.284     170.615       3.168       0.248     102.916

 Normal termination of Gaussian 16 at Tue Sep 17 10:33:43 2024.
 Gaussian 16:  ES64L-G16RevC.02  7-Dec-2021

 ----------------------------------------------------------------------
 #p M062X/def2tzvp geom=check guess=read scf(xqc,tight) integral(grid=u
 ltrafine) scrf(SMD, solvent=1,4-Dioxane) nmr=giao
 ----------------------------------------------------------------------

 ---
 spe
 ---
 Structure from the checkpoint file:  "smiles_00077_conf_2.chk"
 Charge =  0 Multiplicity = 1

                         Standard orientation:
 ---------------------------------------------------------------------
 Center     Atomic      Atomic             Coordinates (Angstroms)
 Number     Number       Type             X           Y           Z
 ---------------------------------------------------------------------
      1          6           0       -2.886633    3.085595    0.144822
      2          8           0       -1.805948    2.141190    0.232758
      3          6           0       -2.131343    0.872651   -0.109059
      4          8           0       -3.244760    0.539769   -0.444410
      5          6           0       -0.931518   -0.018467   -0.031217
      6          6           0        0.346144    0.554971   -0.034712
      7          6           0        1.464273   -0.265910   -0.005674
      8         35           0        3.214809    0.473552   -0.019971
      9          6           0        1.288692   -1.647433    0.033148
     10          7           0        0.077546   -2.205124    0.053516
     11          6           0       -0.994466   -1.427091    0.021473
     12         17           0       -2.514318   -2.282176    0.090415
     13          1           0       -3.702217    2.792310    0.809155
     14          1           0       -3.265523    3.138526   -0.878325
     15          1           0       -2.463794    4.041499    0.450564
     16          1           0        0.446416    1.631453   -0.064259
     17          1           0        2.142145   -2.318813    0.050702
 ---------------------------------------------------------------------

 SCF Done:  E(RM062X) =  -3509.35213695     A.U. after    1 cycles

      1  C    Isotropic =   130.0405   Anisotropy =    73.2992

      2  O    Isotropic =   126.8489   Anisotropy =   167.3663

      3  C    Isotropic =     3.1794   Anisotropy =   102.0562

      4  O    Isotropic =  -168.8393   Anisotropy =   744.5740

      5  C    Isotropic =    38.8067   Anisotropy =   165.8579

      6  C    Isotropic =    16.3842   Anisotropy =   209.3610

      7  C    Isotropic =    29.5978   Anisotropy =   144.7877

      8  Br   Isotropic =  2122.4566   Anisotropy =  1207.0063

      9  C    Isotropic =     6.9121   Anisotropy =   178.0263

     10  N    Isotropic =  -140.5782   Anisotropy =   560.7419

     11  C    Isotropic =     3.8431   Anisotropy =   139.1392

     12  Cl   Isotropic =   581.0795   Anisotropy =   538.7704

     13  H    Isotropic =    27.8959   Anisotropy =     8.2394

     14  H    Isotropic =    27.9698   Anisotropy =     8.2875

     15  H    Isotropic =    27.9882   Anisotropy =     7.6560

     16  H    Isotropic =    22.5376   Anisotropy =    14.3586

     17  H    Isotropic =    22.4657   Anisotropy =    11.0075

 The electronic state is 1-A.
 Alpha  occ. eigenvalues -- -485.39442-102.65319 -63.37912 -57.19865 -57.19617
 Alpha  occ. eigenvalues --  -57.19611 -19.68587 -19.63311 -14.78400 -10.69576
 Alpha  occ. eigenvalues --  -10.66526 -10.62588 -10.61448 -10.60001 -10.59596
 Alpha  occ. eigenvalues --  -10.59523  -9.81587  -9.04556  -7.53790  -7.53280
 Alpha  occ. eigenvalues --   -7.53222  -6.86991  -6.86070  -6.86050  -2.90367
 Alpha  occ. eigenvalues --   -2.90033  -2.90010  -2.89153  -2.89152  -1.24729
 Alpha  occ. eigenvalues --   -1.15533  -1.10159  -0.97445  -0.95738  -0.91418
 Alpha  occ. eigenvalues --   -0.84285  -0.82911  -0.76658  -0.72390  -0.66955
 Alpha  occ. eigenvalues --   -0.62730  -0.60855  -0.59563  -0.58013  -0.56407
 Alpha  occ. eigenvalues --   -0.52685  -0.51343  -0.50772  -0.50254  -0.47864
 Alpha  occ. eigenvalues --   -0.46625  -0.44331  -0.43908  -0.40295  -0.39163
 Alpha  occ. eigenvalues --   -0.38809  -0.37723  -0.36861  -0.36411  -0.35522
 Alpha  occ. eigenvalues --   -0.31523
 Alpha virt. eigenvalues --   -0.04764  -0.02288   0.02163   0.06322   0.06860
 Alpha virt. eigenvalues --    0.08163   0.10178   0.11122   0.11709   0.13150
 Alpha virt. eigenvalues --    0.14538   0.14938   0.16569   0.17047   0.17417

 Mulliken charges:
               1
     1  C   -0.264993
     2  O   -0.280140
     3  C    0.350788
     4  O   -0.326191
     5  C   -0.030700
     6  C   -0.114087
     7  C    0.014078
     8  Br  -0.069785
     9  C   -0.040700
    10  N   -0.204962
    11  C    0.111196
    12  Cl  -0.026682
    13  H    0.163908
    14  H    0.163947
    15  H    0.158642
    16  H    0.206936
    17  H    0.188744
 Sum of Mulliken charges =  -0.00000

 Dipole moment (field-independent basis, Debye):
    X=              1.6375    Y=              3.6669    Z=              0.3853  Tot=              4.0343
 Quadrupole moment (field-independent basis, Debye-Ang):
   XX=            -91.6020   YY=            -82.8808   ZZ=            -88.4178
   XY=            -10.6829   XZ=             -2.4506   YZ=              0.1648

 Normal termination of Gaussian 16 at Tue Sep 17 10:48:04 2024.
