 Gaussian 16, Revision C.02,

 ----------------------------------------------------------------------
 #p B3LYP/6-31G(d,p) EmpiricalDispersion=GD3BJ opt freq scf(xqc,tight)
 integral(grid=ultrafine)
 ----------------------------------------------------------------------

 ----------------------------------
 opt-freq conformers_unique/conf_ae
 ----------------------------------
 Symbolic Z-matrix:
 Charge =  0 Multiplicity = 1

 SCF Done:  E(RB3LYP) =  -3031.26473065     A.U. after   15 cycles
 SCF Done:  E(RB3LYP) =  -3031.26588909     A.U. after   12 cycles
 SCF Done:  E(RB3LYP) =  -3031.26619077     A.U. after   12 cycles
 SCF Done:  E(RB3LYP) =  -3031.26714013     A.U. after   16 cycles
 SCF Done:  E(RB3LYP) =  -3031.26799083     A.U. after   13 cycles
 SCF Done:  E(RB3LYP) =  -3031.26906609     A.U. after   13 cycles
 SCF Done:  E(RB3LYP) =  -3031.27004986     A.U. after   13 cycles
 SCF Done:  E(RB3LYP) =  -3031.27059195     A.U. after   13 cycles
 SCF Done:  E(RB3LYP) =  -3031.27068512     A.U. after   13 cycles
 SCF Done:  E(RB3LYP) =  -3031.27071341     A.U. after   12 cycles
 SCF Done:  E(RB3LYP) =  -3031.27076167     A.U. after   11 cycles
 SCF Done:  E(RB3LYP) =  -3031.27077474     A.U. after   10 cycles
 SCF Done:  E(RB3LYP) =  -3031.27078071     A.U. after   10 cycles
 SCF Done:  E(RB3LYP) =  -3031.27078697     A.U. after   11 cycles
 SCF Done:  E(RB3LYP) =  -3031.27078906     A.U. after   11 cycles
 SCF Done:  E(RB3LYP) =  -3031.27078920     A.U. after    9 cycles
 SCF Done:  E(RB3LYP) =  -3031.27078920     A.U. after    7 cycles
 Optimization completed.
    -- Stationary point found.
 Normal termination of Gaussian 16 at Tue Sep 17 09:47:23 2024.

 ----------------------------------------------------------------------
 #P Geom=AllCheck Guess=TCheck SCRF=Check GenChk RB3LYP/6-31G(d,p) Freq
 ----------------------------------------------------------------------

 Structure from the checkpoint file:  "smiles_00098_conf_4.chk"
 ----------------------------------
 opt-freq conformers_unique/conf_ae
 ----------------------------------
 Charge =  0 Multiplicity = 1

 SCF Done:  E(RB3LYP) =  -3031.27078920     A.U. after    1 cycles

                      1                      2                      3
                      A                      A                      A
 Frequencies --     27.4233                94.8896               126.9363
 Red. masses --      7.3542                 3.3966                 1.9720
 Frc consts  --      0.0033                 0.0180                 0.0187
 IR Inten    --      1.2531                 0.8799                 0.7217

                      4                      5                      6
                      A                      A                      A
 Frequencies --    141.9530               157.8767               211.6102
 Red. masses --      1.7685                 4.1229                 5.9537
 Frc consts  --      0.0210                 0.0605                 0.1571
 IR Inten    --      0.3596                 2.7070                 1.1786

                      7                      8                      9
                      A                      A                      A
 Frequencies --    251.1248               288.1545               351.0778
 Red. masses --      5.1749                 9.2439                 5.3384
 Frc consts  --      0.1923                 0.4522                 0.3877
 IR Inten    --      1.4738                 0.5037                18.4217

                     10                     11                     12
                      A                      A                      A
 Frequencies --    402.2325               439.9671               488.2938
 Red. masses --      6.6428                 3.8104                 4.5108
 Frc consts  --      0.6332                 0.4346                 0.6337
 IR Inten    --      1.9046                 1.9935                 5.2235

                     13                     14                     15
                      A                      A                      A
 Frequencies --    528.1848               660.4583               709.7076
 Red. masses --      5.1119                 6.5185                 4.7306
 Frc consts  --      0.8402                 1.6753                 1.4039
 IR Inten    --      3.9372                 8.1659                14.2608

                     16                     17                     18
                      A                      A                      A
 Frequencies --    713.3911               767.1612               807.2751
 Red. masses --      6.4348                 1.5525                 2.7606
 Frc consts  --      1.9295                 0.5383                 1.0600
 IR Inten    --     12.0875                42.7516                 2.3565

                     19                     20                     21
                      A                      A                      A
 Frequencies --    839.3599               902.3126               979.6959
 Red. masses --      5.2489                 1.4414                 1.3756
 Frc consts  --      2.1788                 0.6914                 0.7779
 IR Inten    --      7.8225                 0.3192                 1.5620

                     22                     23                     24
                      A                      A                      A
 Frequencies --   1003.2371              1010.2247              1050.7448
 Red. masses --      6.5826                 1.3402                 7.8695
 Frc consts  --      3.9035                 0.8059                 5.1191
 IR Inten    --     13.2732                 0.5616                57.6673

                     25                     26                     27
                      A                      A                      A
 Frequencies --   1078.2075              1138.9002              1168.3098
 Red. masses --      2.3482                 2.5882                 1.7939
 Frc consts  --      1.6084                 1.9780                 1.4426
 IR Inten    --     12.2460                69.1196                47.1501

                     28                     29                     30
                      A                      A                      A
 Frequencies --   1180.3959              1194.5716              1216.2340
 Red. masses --      1.2769                 1.0950                 1.6200
 Frc consts  --      1.0482                 0.9206                 1.4119
 IR Inten    --      1.0709                 5.3987                55.7401

                     31                     32                     33
                      A                      A                      A
 Frequencies --   1287.7105              1296.7805              1350.6011
 Red. masses --      4.4294                 1.5251                 8.6029
 Frc consts  --      4.3274                 1.5110                 9.2459
 IR Inten    --    388.6674                35.6479                41.2839

                     34                     35                     36
                      A                      A                      A
 Frequencies --   1472.6169              1480.2421              1494.7977
 Red. masses --      2.1114                 1.1990                 1.0465
 Frc consts  --      2.6977                 1.5478                 1.3778
 IR Inten    --     21.2096                13.2732                 6.1964

                     37                     38                     39
                      A                      A                      A
 Frequencies --   1509.8119              1512.5539              1620.7475
 Red. masses --      1.2718                 1.7599                 5.8154
 Frc consts  --      1.7081                 2.3723                 9.0003
 IR Inten    --     27.6440                 7.4155                12.2443

                     40                     41                     42
                      A                      A                      A
 Frequencies --   1647.4353              1815.1339              3065.6353
 Red. masses --      5.9337                11.9448                 1.0297
 Frc consts  --      9.4885                23.1871                 5.7018
 IR Inten    --     25.8349               191.4345                36.3127

                     43                     44                     45
                      A                      A                      A
 Frequencies --   3143.0609              3175.9991              3193.8007
 Red. masses --      1.1068                 1.1072                 1.0869
 Frc consts  --      6.4423                 6.5800                 6.5320
 IR Inten    --     19.1959                16.1808                 2.9696

                     46                     47                     48
                      A                      A                      A
 Frequencies --   3209.5595              3224.8364              3239.3761
 Red. masses --      1.0929                 1.0946                 1.0928
 Frc consts  --      6.6334                 6.7066                 6.7563
 IR Inten    --     13.3192                 4.2582                 2.5706

 - Thermochemistry -
 -------------------
 Temperature   298.150 Kelvin.  Pressure   1.00000 Atm.
 Atom     1 has atomic number  6 and mass  12.00000

 Molecular mass:   213.96294 amu.
 Principal axes and moments of inertia in atomic units:
                           1         2         3
     Eigenvalues --  1877.512922558.631374387.86362
           X            0.98345   0.18118  -0.00310
           Y           -0.18118   0.98345  -0.00001
           Z            0.00305   0.00057   1.00000
 This molecule is an asymmetric top.
 Rotational symmetry number  1.
 Warning -- assumption of classical behavior for rotation
           may cause significant error
 Rotational temperatures (Kelvin)      0.04613     0.03385     0.01974
 Rotational constants (GHZ):           0.96124     0.70535     0.41130
 Zero-point vibrational energy     350928.2 (Joules/Mol)
                                   83.87385 (Kcal/Mol)
 Warning -- explicit consideration of  13 degrees of freedom as
           vibrations may cause significant error
 Vibrational temperatures:     39.46   136.53   182.63   204.24   227.15
          (Kelvin)            304.46   361.31   414.59   505.12   578.72
                              633.01   702.55   759.94   950.25  1021.11
                             1026.41  1103.77  1161.49  1207.65  1298.23
                             1409.56  1443.43  1453.49  1511.79  1551.30
                             1638.62  1680.94  1698.33  1718.72  1749.89
                             1852.73  1865.78  1943.21  2118.77  2129.74
                             2150.68  2172.28  2176.23  2331.89  2370.29
                             2611.57  4410.77  4522.16  4569.55  4595.17
                             4617.84  4639.82  4660.74

 Zero-point correction=                           0.133661 (Hartree/Particle)
 Thermal correction to Energy=                    0.143889
 Thermal correction to Enthalpy=                  0.144834
 Thermal correction to Gibbs Free Energy=         0.095762
 Sum of electronic and zero-point Energies=          -3031.137128
 Sum of electronic and thermal Energies=             -3031.126900
 Sum of electronic and thermal Enthalpies=           -3031.125956
 Sum of electronic and thermal Free Energies=        -3031.175027

                     E (Thermal)             CV                S
                      KCal/Mol        Cal/Mol-Kelvin    Cal/Mol-Kelvin
 Total                   90.292             36.536            103.280
 Electronic               0.000              0.000              0.000
 Translational            0.889              2.981             41.985
 Rotational               0.889              2.981             31.422
 Vibrational             88.514             30.574             29.872
 Vibration     1          0.593              1.984              6.008
 Vibration     2          0.603              1.953              3.557
 Vibration     3          0.611              1.926              2.992
 Vibration     4          0.615              1.911              2.777
 Vibration     5          0.621              1.894              2.575
 Vibration     6          0.643              1.823              2.030
 Vibration     7          0.663              1.761              1.723
 Vibration     8          0.685              1.696              1.485
 Vibration     9          0.728              1.573              1.161
 Vibration    10          0.768              1.465              0.954
 Vibration    11          0.800              1.383              0.827
 Vibration    12          0.844              1.276              0.688
 Vibration    13          0.883              1.188              0.591

 Optimization completed.
    -- Stationary point found.
 Normal termination of Gaussian 16 at Tue Sep 17 09:48:32 2024.

 ----------------------------------------------------------------------
 #p M062X/def2tzvp geom=check guess=read scf(xqc,tight) integral(grid=u
 ltrafine) scrf(SMD, solvent=1,4-Dioxane) polar prop=efg volume
 ----------------------------------------------------------------------

 ---
 spe
 ---
 Structure from the checkpoint file:  "smiles_00098_conf_4.chk"
 Charge =  0 Multiplicity = 1

 SCF Done:  E(RM062X) =  -3033.70908015     A.U. after   13 cycles

  Exact polarizability:     158.751       2.215     169.677       0.331       0.860      77.424
 Approx polarizability:     164.261      -3.582     188.776       0.413       2.882      96.772

 Normal termination of Gaussian 16 at Tue Sep 17 10:28:01 2024.
 Gaussian 16:  ES64L-G16RevC.02  7-Dec-2021

 ----------------------------------------------------------------------
 #p M062X/def2tzvp geom=check guess=read scf(xqc,tight) integral(grid=u
 ltrafine) scrf(SMD, solvent=1,4-Dioxane) nmr=giao
 ----------------------------------------------------------------------

 ---
 spe
 ---
 Structure from the checkpoint file:  "smiles_00098_conf_4.chk"
 Charge =  0 Multiplicity = 1

                         Standard orientation:
 ---------------------------------------------------------------------
 Center     Atomic      Atomic             Coordinates (Angstroms)
 Number     Number       Type             X           Y           Z
 ---------------------------------------------------------------------
      1          6           0        3.860762    0.585192   -0.154909
      2          8           0        2.717397   -0.278521   -0.237075
      3          6           0        1.543384    0.299498    0.119658
      4          8           0        1.463008    1.460279    0.457543
      5          6           0        0.418073   -0.681138    0.052163
      6          6           0        0.713829   -2.055521    0.063467
      7          6           0       -0.289829   -3.015737    0.043729
      8          6           0       -1.625027   -2.614712    0.001413
      9          6           0       -1.944752   -1.260303   -0.021263
     10          6           0       -0.934010   -0.298522    0.008122
     11         35           0       -1.504779    1.518136   -0.059873
     12          1           0        3.736783    1.447619   -0.813765
     13          1           0        4.709050   -0.021366   -0.470198
     14          1           0        4.000470    0.942772    0.868079
     15          1           0        1.754058   -2.353232    0.093534
     16          1           0       -0.031985   -4.069362    0.060379
     17          1           0       -2.421482   -3.351988   -0.016579
     18          1           0       -2.977444   -0.935816   -0.063903
 ---------------------------------------------------------------------

 SCF Done:  E(RM062X) =  -3033.70908015     A.U. after    1 cycles

      1  C    Isotropic =   130.7349   Anisotropy =    71.5922

      2  O    Isotropic =   129.1422   Anisotropy =   171.0640

      3  C    Isotropic =     0.7321   Anisotropy =   103.3433

      4  O    Isotropic =  -160.3373   Anisotropy =   729.0771

      5  C    Isotropic =    33.3086   Anisotropy =   181.8733

      6  C    Isotropic =    28.9629   Anisotropy =   218.6231

      7  C    Isotropic =    36.9557   Anisotropy =   217.1836

      8  C    Isotropic =    28.4683   Anisotropy =   218.4384

      9  C    Isotropic =    26.9713   Anisotropy =   181.0557

     10  C    Isotropic =    20.6034   Anisotropy =   163.1328

     11  Br   Isotropic =  2035.9252   Anisotropy =  1175.4566

     12  H    Isotropic =    27.9140   Anisotropy =     8.0660

     13  H    Isotropic =    28.0454   Anisotropy =     7.8573

     14  H    Isotropic =    27.9866   Anisotropy =     8.2528

     15  H    Isotropic =    22.7298   Anisotropy =    10.0067

     16  H    Isotropic =    23.6713   Anisotropy =     5.9199

     17  H    Isotropic =    23.5065   Anisotropy =     6.2203

     18  H    Isotropic =    23.4028   Anisotropy =    11.4767

 The electronic state is 1-A.
 Alpha  occ. eigenvalues -- -485.37304 -63.35779 -57.17733 -57.17492 -57.17468
 Alpha  occ. eigenvalues --  -19.67508 -19.62173 -10.68280 -10.61651 -10.58826
 Alpha  occ. eigenvalues --  -10.57900 -10.56350 -10.56308 -10.56146 -10.55659
 Alpha  occ. eigenvalues --   -9.02426  -6.84862  -6.83970  -6.83888  -2.88240
 Alpha  occ. eigenvalues --   -2.87934  -2.87852  -2.87020  -2.87018  -1.23614
 Alpha  occ. eigenvalues --   -1.14354  -0.99006  -0.90357  -0.88470  -0.82790
 Alpha  occ. eigenvalues --   -0.81185  -0.72673  -0.69495  -0.65479  -0.62107
 Alpha  occ. eigenvalues --   -0.57197  -0.56913  -0.56420  -0.53490  -0.52738
 Alpha  occ. eigenvalues --   -0.49133  -0.48855  -0.48384  -0.45392  -0.43791
 Alpha  occ. eigenvalues --   -0.43720  -0.41382  -0.38526  -0.38203  -0.37316
 Alpha  occ. eigenvalues --   -0.33233  -0.32780  -0.30365
 Alpha virt. eigenvalues --   -0.02780   0.00334   0.03770   0.08035   0.08497
 Alpha virt. eigenvalues --    0.09532   0.11106   0.11784   0.13244   0.13652
 Alpha virt. eigenvalues --    0.15250   0.15968   0.16180   0.18217   0.18774

 Mulliken charges:
               1
     1  C   -0.263566
     2  O   -0.283903
     3  C    0.364794
     4  O   -0.341385
     5  C    0.096327
     6  C   -0.170181
     7  C   -0.160195
     8  C   -0.143080
     9  C   -0.151109
    10  C   -0.049788
    11  Br  -0.071484
    12  H    0.160605
    13  H    0.154790
    14  H    0.160412
    15  H    0.180714
    16  H    0.169027
    17  H    0.171583
    18  H    0.176439
 Sum of Mulliken charges =  -0.00000

 Dipole moment (field-independent basis, Debye):
    X=              1.0819    Y=             -3.6933    Z=             -0.4452  Tot=              3.8742
 Quadrupole moment (field-independent basis, Debye-Ang):
   XX=            -61.4290   YY=            -70.9306   ZZ=            -79.1097
   XY=              3.1330   XZ=             -0.5607   YZ=             -1.8634

 Normal termination of Gaussian 16 at Tue Sep 17 10:42:28 2024.
