 Gaussian 16, Revision C.02,

 ----------------------------------------------------------------------
 #p B3LYP/6-31G(d,p) EmpiricalDispersion=GD3BJ opt freq scf(xqc,tight)
 integral(grid=ultrafine)
 ----------------------------------------------------------------------

 ----------------------------------
 opt-freq conformers_unique/conf_aa
 ----------------------------------
 Symbolic Z-matrix:
 Charge =  0 Multiplicity = 1

 SCF Done:  E(RB3LYP) =  -3031.26890352     A.U. after   15 cycles
 SCF Done:  E(RB3LYP) =  -3031.26837279     A.U. after   15 cycles
 SCF Done:  E(RB3LYP) =  -3031.26957083     A.U. after   13 cycles
 SCF Done:  E(RB3LYP) =  -3031.27090551     A.U. after   13 cycles
 SCF Done:  E(RB3LYP) =  -3031.27093372     A.U. after   11 cycles
 SCF Done:  E(RB3LYP) =  -3031.27093766     A.U. after    9 cycles
 SCF Done:  E(RB3LYP) =  -3031.27093893     A.U. after    8 cycles
 SCF Done:  E(RB3LYP) =  -3031.27093999     A.U. after    8 cycles
 SCF Done:  E(RB3LYP) =  -3031.27094083     A.U. after    8 cycles
 SCF Done:  E(RB3LYP) =  -3031.27094103     A.U. after    8 cycles
 Optimization completed.
    -- Stationary point found.
 Normal termination of Gaussian 16 at Tue Sep 17 09:45:49 2024.

 ----------------------------------------------------------------------
 #P Geom=AllCheck Guess=TCheck SCRF=Check GenChk RB3LYP/6-31G(d,p) Freq
 ----------------------------------------------------------------------

 Structure from the checkpoint file:  "smiles_00098_conf_0.chk"
 ----------------------------------
 opt-freq conformers_unique/conf_aa
 ----------------------------------
 Charge =  0 Multiplicity = 1

 SCF Done:  E(RB3LYP) =  -3031.27094103     A.U. after    1 cycles

                      1                      2                      3
                      A                      A                      A
 Frequencies --     25.9747                94.8085               117.8847
 Red. masses --      6.6725                 3.4211                 3.8361
 Frc consts  --      0.0027                 0.0181                 0.0314
 IR Inten    --      2.5125                 0.7904                 1.1796

                      4                      5                      6
                      A                      A                      A
 Frequencies --    132.0388               162.2866               210.4791
 Red. masses --      1.1892                 4.3473                 7.6277
 Frc consts  --      0.0122                 0.0675                 0.1991
 IR Inten    --      0.3320                 2.1219                 1.1036

                      7                      8                      9
                      A                      A                      A
 Frequencies --    257.3254               276.8387               348.2998
 Red. masses --      4.8993                 8.3538                 4.7484
 Frc consts  --      0.1911                 0.3772                 0.3394
 IR Inten    --      1.4568                 0.6548                17.8860

                     10                     11                     12
                      A                      A                      A
 Frequencies --    398.7160               440.0948               489.1791
 Red. masses --      7.5142                 3.9840                 4.4966
 Frc consts  --      0.7038                 0.4546                 0.6340
 IR Inten    --      4.2464                 0.7588                 5.2896

                     13                     14                     15
                      A                      A                      A
 Frequencies --    536.8267               657.4120               709.8728
 Red. masses --      5.1359                 6.4896                 4.9793
 Frc consts  --      0.8720                 1.6525                 1.4784
 IR Inten    --      0.9311                 4.6139                15.8701

                     16                     17                     18
                      A                      A                      A
 Frequencies --    717.2010               767.5872               806.3495
 Red. masses --      6.2250                 1.6113                 2.5917
 Frc consts  --      1.8866                 0.5593                 0.9928
 IR Inten    --     12.2220                44.8652                 2.8143

                     19                     20                     21
                      A                      A                      A
 Frequencies --    847.7166               903.7295               983.6657
 Red. masses --      5.1486                 1.4330                 1.3940
 Frc consts  --      2.1799                 0.6896                 0.7947
 IR Inten    --      7.9558                 0.3760                 2.8271

                     22                     23                     24
                      A                      A                      A
 Frequencies --   1000.1582              1011.2031              1046.3234
 Red. masses --      5.7780                 1.3650                 7.6703
 Frc consts  --      3.4054                 0.8223                 4.9476
 IR Inten    --     12.2217                 0.0388                35.5290

                     25                     26                     27
                      A                      A                      A
 Frequencies --   1076.3933              1147.4751              1162.9260
 Red. masses --      2.4184                 1.7222                 2.4246
 Frc consts  --      1.6509                 1.3360                 1.9320
 IR Inten    --     18.3836                 1.8854                74.3122

                     28                     29                     30
                      A                      A                      A
 Frequencies --   1178.3506              1192.5926              1220.2751
 Red. masses --      1.2770                 1.0881                 1.6908
 Frc consts  --      1.0447                 0.9118                 1.4834
 IR Inten    --      0.7665                 2.0141                24.6124

                     31                     32                     33
                      A                      A                      A
 Frequencies --   1286.0091              1327.7237              1346.2601
 Red. masses --      1.5714                 3.8090                 8.5280
 Frc consts  --      1.5312                 3.9562                 9.1065
 IR Inten    --     30.9773               365.8605                54.9072

                     34                     35                     36
                      A                      A                      A
 Frequencies --   1471.6913              1482.1659              1495.3922
 Red. masses --      1.7893                 1.4074                 1.0479
 Frc consts  --      2.2833                 1.8216                 1.3806
 IR Inten    --     22.1385                47.2047                 5.7853

                     37                     38                     39
                      A                      A                      A
 Frequencies --   1507.2988              1511.8140              1619.1551
 Red. masses --      1.2202                 1.8590                 5.8781
 Frc consts  --      1.6334                 2.5034                 9.0796
 IR Inten    --      2.9040                13.2680                 5.8008

                     40                     41                     42
                      A                      A                      A
 Frequencies --   1648.5678              1794.3660              3067.5067
 Red. masses --      5.9356                11.5880                 1.0297
 Frc consts  --      9.5045                21.9826                 5.7089
 IR Inten    --     29.6894               239.6248                33.8866

                     43                     44                     45
                      A                      A                      A
 Frequencies --   3145.6410              3180.8116              3194.1580
 Red. masses --      1.1070                 1.1071                 1.0868
 Frc consts  --      6.4537                 6.5996                 6.5331
 IR Inten    --     18.1927                12.9308                 3.3170

                     46                     47                     48
                      A                      A                      A
 Frequencies --   3209.5293              3223.9451              3227.6193
 Red. masses --      1.0919                 1.0933                 1.0953
 Frc consts  --      6.6272                 6.6955                 6.7226
 IR Inten    --     10.7573                 2.0608                 6.1716

 - Thermochemistry -
 -------------------
 Temperature   298.150 Kelvin.  Pressure   1.00000 Atm.
 Atom     1 has atomic number  6 and mass  12.00000

 Molecular mass:   213.96294 amu.
 Principal axes and moments of inertia in atomic units:
                           1         2         3
     Eigenvalues --  2004.727442225.427424145.16467
           X            0.99802  -0.06280  -0.00308
           Y            0.06280   0.99803  -0.00141
           Z            0.00316   0.00122   0.99999
 This molecule is an asymmetric top.
 Rotational symmetry number  1.
 Warning -- assumption of classical behavior for rotation
           may cause significant error
 Rotational temperatures (Kelvin)      0.04320     0.03892     0.02090
 Rotational constants (GHZ):           0.90024     0.81096     0.43538
 Zero-point vibrational energy     350862.6 (Joules/Mol)
                                   83.85816 (Kcal/Mol)
 Warning -- explicit consideration of  13 degrees of freedom as
           vibrations may cause significant error
 Vibrational temperatures:     37.37   136.41   169.61   189.97   233.49
          (Kelvin)            302.83   370.23   398.31   501.13   573.66
                              633.20   703.82   772.37   945.87  1021.35
                             1031.89  1104.39  1160.16  1219.68  1300.27
                             1415.28  1439.00  1454.90  1505.43  1548.69
                             1650.96  1673.19  1695.38  1715.87  1755.70
                             1850.28  1910.30  1936.97  2117.44  2132.51
                             2151.54  2168.67  2175.16  2329.60  2371.92
                             2581.69  4413.46  4525.88  4576.48  4595.68
                             4617.80  4638.54  4643.82

 Zero-point correction=                           0.133636 (Hartree/Particle)
 Thermal correction to Energy=                    0.143899
 Thermal correction to Enthalpy=                  0.144843
 Thermal correction to Gibbs Free Energy=         0.095658
 Sum of electronic and zero-point Energies=          -3031.137305
 Sum of electronic and thermal Energies=             -3031.127042
 Sum of electronic and thermal Enthalpies=           -3031.126098
 Sum of electronic and thermal Free Energies=        -3031.175283

                     E (Thermal)             CV                S
                      KCal/Mol        Cal/Mol-Kelvin    Cal/Mol-Kelvin
 Total                   90.298             36.529            103.519
 Electronic               0.000              0.000              0.000
 Translational            0.889              2.981             41.985
 Rotational               0.889              2.981             31.292
 Vibrational             88.521             30.568             30.241
 Vibration     1          0.593              1.985              6.115
 Vibration     2          0.603              1.953              3.558
 Vibration     3          0.608              1.934              3.135
 Vibration     4          0.612              1.921              2.916
 Vibration     5          0.622              1.889              2.523
 Vibration     6          0.643              1.825              2.040
 Vibration     7          0.667              1.750              1.680
 Vibration     8          0.678              1.716              1.553
 Vibration     9          0.726              1.579              1.174
 Vibration    10          0.765              1.473              0.967
 Vibration    11          0.800              1.383              0.826
 Vibration    12          0.845              1.274              0.686
 Vibration    13          0.892              1.169              0.572

 Optimization completed.
    -- Stationary point found.
 Normal termination of Gaussian 16 at Tue Sep 17 09:47:09 2024.

 ----------------------------------------------------------------------
 #p M062X/def2tzvp geom=check guess=read scf(xqc,tight) integral(grid=u
 ltrafine) scrf(SMD, solvent=1,4-Dioxane) polar prop=efg volume
 ----------------------------------------------------------------------

 ---
 spe
 ---
 Structure from the checkpoint file:  "smiles_00098_conf_0.chk"
 Charge =  0 Multiplicity = 1

 SCF Done:  E(RM062X) =  -3033.70887610     A.U. after   12 cycles

  Exact polarizability:     170.861      10.283     156.200       3.063      -2.507      78.272
 Approx polarizability:     173.043       8.933     177.969       4.401      -5.025      98.085

 Normal termination of Gaussian 16 at Tue Sep 17 10:30:12 2024.
 Gaussian 16:  ES64L-G16RevC.02  7-Dec-2021

 ----------------------------------------------------------------------
 #p M062X/def2tzvp geom=check guess=read scf(xqc,tight) integral(grid=u
 ltrafine) scrf(SMD, solvent=1,4-Dioxane) nmr=giao
 ----------------------------------------------------------------------

 ---
 spe
 ---
 Structure from the checkpoint file:  "smiles_00098_conf_0.chk"
 Charge =  0 Multiplicity = 1

                         Standard orientation:
 ---------------------------------------------------------------------
 Center     Atomic      Atomic             Coordinates (Angstroms)
 Number     Number       Type             X           Y           Z
 ---------------------------------------------------------------------
      1          6           0       -3.352800    0.752501    0.315870
      2          8           0       -1.959589    0.411242    0.388294
      3          6           0       -1.118212    1.330328   -0.110038
      4          8           0       -1.485660    2.403744   -0.547198
      5          6           0        0.323873    0.937505   -0.024168
      6          6           0        1.224532    2.015577    0.000465
      7          6           0        2.595439    1.819633    0.099270
      8          6           0        3.099286    0.520278    0.160945
      9          6           0        2.230925   -0.566638    0.114117
     10          6           0        0.852712   -0.363131    0.023857
     11         35           0       -0.209575   -1.946418   -0.101716
     12          1           0       -3.882732   -0.107368    0.723149
     13          1           0       -3.648481    0.935505   -0.719491
     14          1           0       -3.557306    1.649140    0.905467
     15          1           0        0.804716    3.012839   -0.061982
     16          1           0        3.265687    2.672178    0.125536
     17          1           0        4.168011    0.346222    0.236723
     18          1           0        2.612673   -1.580112    0.139972
 ---------------------------------------------------------------------

 SCF Done:  E(RM062X) =  -3033.70887610     A.U. after    1 cycles

      1  C    Isotropic =   131.0799   Anisotropy =    72.3088

      2  O    Isotropic =   121.4184   Anisotropy =   182.6663

      3  C    Isotropic =    -2.2446   Anisotropy =   108.4592

      4  O    Isotropic =  -143.4189   Anisotropy =   681.4100

      5  C    Isotropic =    30.6971   Anisotropy =   179.7750

      6  C    Isotropic =    26.3782   Anisotropy =   219.7272

      7  C    Isotropic =    36.2963   Anisotropy =   218.1561

      8  C    Isotropic =    29.3771   Anisotropy =   220.3846

      9  C    Isotropic =    27.8390   Anisotropy =   179.7612

     10  C    Isotropic =    23.3539   Anisotropy =   153.9076

     11  Br   Isotropic =  2020.9952   Anisotropy =  1220.2857

     12  H    Isotropic =    27.9523   Anisotropy =     7.6106

     13  H    Isotropic =    27.9119   Anisotropy =     8.3585

     14  H    Isotropic =    27.9633   Anisotropy =     8.9296

     15  H    Isotropic =    22.6705   Anisotropy =     9.1895

     16  H    Isotropic =    23.6141   Anisotropy =     5.7727

     17  H    Isotropic =    23.5743   Anisotropy =     6.1307

     18  H    Isotropic =    23.4368   Anisotropy =    11.6321

 The electronic state is 1-A.
 Alpha  occ. eigenvalues -- -485.37662 -63.36137 -57.18090 -57.17849 -57.17829
 Alpha  occ. eigenvalues --  -19.67677 -19.62092 -10.68367 -10.61837 -10.58852
 Alpha  occ. eigenvalues --  -10.57890 -10.56288 -10.56194 -10.56170 -10.55610
 Alpha  occ. eigenvalues --   -9.02781  -6.85213  -6.84321  -6.84254  -2.88590
 Alpha  occ. eigenvalues --   -2.88280  -2.88212  -2.87380  -2.87379  -1.23901
 Alpha  occ. eigenvalues --   -1.14371  -0.99011  -0.90508  -0.88140  -0.83114
 Alpha  occ. eigenvalues --   -0.81537  -0.72310  -0.69795  -0.65718  -0.61789
 Alpha  occ. eigenvalues --   -0.57521  -0.57186  -0.56492  -0.53553  -0.52193
 Alpha  occ. eigenvalues --   -0.49624  -0.48846  -0.48046  -0.45517  -0.43998
 Alpha  occ. eigenvalues --   -0.43270  -0.41526  -0.38619  -0.37994  -0.36857
 Alpha  occ. eigenvalues --   -0.34413  -0.32642  -0.30520
 Alpha virt. eigenvalues --   -0.02650   0.00336   0.03341   0.07761   0.08578
 Alpha virt. eigenvalues --    0.09571   0.11359   0.11840   0.13663   0.14127
 Alpha virt. eigenvalues --    0.14797   0.15387   0.16013   0.18071   0.19256

 Mulliken charges:
               1
     1  C   -0.263858
     2  O   -0.266565
     3  C    0.367474
     4  O   -0.371057
     5  C    0.095332
     6  C   -0.164424
     7  C   -0.156968
     8  C   -0.144922
     9  C   -0.151831
    10  C   -0.041062
    11  Br  -0.086864
    12  H    0.157306
    13  H    0.161853
    14  H    0.159964
    15  H    0.186018
    16  H    0.169985
    17  H    0.171526
    18  H    0.178095
 Sum of Mulliken charges =  -0.00000

 Dipole moment (field-independent basis, Debye):
    X=              1.3127    Y=             -0.2782    Z=              0.9378  Tot=              1.6371
 Quadrupole moment (field-independent basis, Debye-Ang):
   XX=            -58.0798   YY=            -79.2548   ZZ=            -79.4134
   XY=              4.4336   XZ=             -1.1754   YZ=              2.7915

 Normal termination of Gaussian 16 at Tue Sep 17 10:45:56 2024.
