 Gaussian 16, Revision C.02,

 ----------------------------------------------------------------------
 #p B3LYP/6-31G(d,p) EmpiricalDispersion=GD3BJ opt freq scf(xqc,tight)
 integral(grid=ultrafine)
 ----------------------------------------------------------------------

 ----------------------------------
 opt-freq conformers_unique/conf_ab
 ----------------------------------
 Symbolic Z-matrix:
 Charge =  0 Multiplicity = 1

 SCF Done:  E(RB3LYP) =  -3031.26814961     A.U. after   15 cycles
 SCF Done:  E(RB3LYP) =  -3031.26761603     A.U. after   15 cycles
 SCF Done:  E(RB3LYP) =  -3031.26886540     A.U. after   13 cycles
 SCF Done:  E(RB3LYP) =  -3031.27020003     A.U. after   13 cycles
 SCF Done:  E(RB3LYP) =  -3031.27029376     A.U. after   11 cycles
 SCF Done:  E(RB3LYP) =  -3031.27054533     A.U. after   12 cycles
 SCF Done:  E(RB3LYP) =  -3031.27071461     A.U. after   13 cycles
 SCF Done:  E(RB3LYP) =  -3031.27080612     A.U. after   11 cycles
 SCF Done:  E(RB3LYP) =  -3031.27089071     A.U. after   11 cycles
 SCF Done:  E(RB3LYP) =  -3031.27093180     A.U. after   10 cycles
 SCF Done:  E(RB3LYP) =  -3031.27093067     A.U. after   10 cycles
 SCF Done:  E(RB3LYP) =  -3031.27094023     A.U. after   10 cycles
 SCF Done:  E(RB3LYP) =  -3031.27094079     A.U. after    9 cycles
 SCF Done:  E(RB3LYP) =  -3031.27094103     A.U. after    9 cycles
 Optimization completed.
    -- Stationary point found.
 Normal termination of Gaussian 16 at Tue Sep 17 09:46:56 2024.

 ----------------------------------------------------------------------
 #P Geom=AllCheck Guess=TCheck SCRF=Check GenChk RB3LYP/6-31G(d,p) Freq
 ----------------------------------------------------------------------

 Structure from the checkpoint file:  "smiles_00098_conf_1.chk"
 ----------------------------------
 opt-freq conformers_unique/conf_ab
 ----------------------------------
 Charge =  0 Multiplicity = 1

 SCF Done:  E(RB3LYP) =  -3031.27094103     A.U. after    1 cycles

                      1                      2                      3
                      A                      A                      A
 Frequencies --     26.0827                94.7417               117.8979
 Red. masses --      6.6783                 3.4192                 3.8453
 Frc consts  --      0.0027                 0.0181                 0.0315
 IR Inten    --      2.5115                 0.7926                 1.1820

                      4                      5                      6
                      A                      A                      A
 Frequencies --    132.1156               162.2660               210.4795
 Red. masses --      1.1888                 4.3402                 7.6286
 Frc consts  --      0.0122                 0.0673                 0.1991
 IR Inten    --      0.3313                 2.1200                 1.1023

                      7                      8                      9
                      A                      A                      A
 Frequencies --    257.2928               276.8433               348.3080
 Red. masses --      4.9003                 8.3524                 4.7486
 Frc consts  --      0.1911                 0.3772                 0.3394
 IR Inten    --      1.4551                 0.6563                17.8816

                     10                     11                     12
                      A                      A                      A
 Frequencies --    398.7404               440.1167               489.1946
 Red. masses --      7.5145                 3.9828                 4.4976
 Frc consts  --      0.7039                 0.4545                 0.6342
 IR Inten    --      4.2501                 0.7577                 5.2876

                     13                     14                     15
                      A                      A                      A
 Frequencies --    536.7952               657.4118               709.8710
 Red. masses --      5.1369                 6.4896                 4.9782
 Frc consts  --      0.8721                 1.6525                 1.4780
 IR Inten    --      0.9324                 4.6147                15.8689

                     16                     17                     18
                      A                      A                      A
 Frequencies --    717.2038               767.5860               806.3468
 Red. masses --      6.2261                 1.6114                 2.5915
 Frc consts  --      1.8869                 0.5594                 0.9927
 IR Inten    --     12.2302                44.8664                 2.8125

                     19                     20                     21
                      A                      A                      A
 Frequencies --    847.7087               903.7294               983.6867
 Red. masses --      5.1493                 1.4330                 1.3934
 Frc consts  --      2.1802                 0.6896                 0.7944
 IR Inten    --      7.9352                 0.3749                 2.8099

                     22                     23                     24
                      A                      A                      A
 Frequencies --   1000.2854              1011.2171              1046.3358
 Red. masses --      5.7703                 1.3658                 7.6699
 Frc consts  --      3.4017                 0.8229                 4.9475
 IR Inten    --     12.1561                 0.0394                35.5365

                     25                     26                     27
                      A                      A                      A
 Frequencies --   1076.4292              1147.4885              1162.9626
 Red. masses --      2.4177                 1.7216                 2.4271
 Frc consts  --      1.6505                 1.3356                 1.9341
 IR Inten    --     18.3932                 1.8844                74.4634

                     28                     29                     30
                      A                      A                      A
 Frequencies --   1178.4003              1192.5967              1220.2858
 Red. masses --      1.2771                 1.0881                 1.6906
 Frc consts  --      1.0448                 0.9118                 1.4833
 IR Inten    --      0.7661                 2.0146                24.6803

                     31                     32                     33
                      A                      A                      A
 Frequencies --   1286.0213              1327.7293              1346.2990
 Red. masses --      1.5714                 3.8101                 8.5251
 Frc consts  --      1.5312                 3.9573                 9.1040
 IR Inten    --     30.9573               365.7423                55.0155

                     34                     35                     36
                      A                      A                      A
 Frequencies --   1471.7079              1482.2053              1495.4088
 Red. masses --      1.7910                 1.4063                 1.0478
 Frc consts  --      2.2855                 1.8203                 1.3806
 IR Inten    --     22.2315                47.0989                 5.7856

                     37                     38                     39
                      A                      A                      A
 Frequencies --   1507.3228              1511.8381              1619.1740
 Red. masses --      1.2210                 1.8572                 5.8773
 Frc consts  --      1.6345                 2.5011                 9.0786
 IR Inten    --      2.9000                13.2580                 5.8045

                     40                     41                     42
                      A                      A                      A
 Frequencies --   1648.5969              1794.3079              3067.4292
 Red. masses --      5.9367                11.5875                 1.0297
 Frc consts  --      9.5065                21.9804                 5.7086
 IR Inten    --     29.7053               239.6246                33.9102

                     43                     44                     45
                      A                      A                      A
 Frequencies --   3145.5216              3180.6928              3194.1697
 Red. masses --      1.1070                 1.1071                 1.0868
 Frc consts  --      6.4532                 6.5991                 6.5331
 IR Inten    --     18.2100                12.9379                 3.3230

                     46                     47                     48
                      A                      A                      A
 Frequencies --   3209.5485              3223.9850              3227.6205
 Red. masses --      1.0919                 1.0933                 1.0953
 Frc consts  --      6.6273                 6.6955                 6.7228
 IR Inten    --     10.7512                 2.0331                 6.1974

 - Thermochemistry -
 -------------------
 Temperature   298.150 Kelvin.  Pressure   1.00000 Atm.
 Atom     1 has atomic number  6 and mass  12.00000

 Molecular mass:   213.96294 amu.
 Principal axes and moments of inertia in atomic units:
                           1         2         3
     Eigenvalues --  2004.730572225.346194145.25419
           X            0.99802   0.06288   0.00308
           Y           -0.06287   0.99802  -0.00141
           Z           -0.00316   0.00121   0.99999
 This molecule is an asymmetric top.
 Rotational symmetry number  1.
 Warning -- assumption of classical behavior for rotation
           may cause significant error
 Rotational temperatures (Kelvin)      0.04320     0.03892     0.02089
 Rotational constants (GHZ):           0.90024     0.81099     0.43538
 Zero-point vibrational energy     350864.7 (Joules/Mol)
                                   83.85868 (Kcal/Mol)
 Warning -- explicit consideration of  13 degrees of freedom as
           vibrations may cause significant error
 Vibrational temperatures:     37.53   136.31   169.63   190.08   233.46
          (Kelvin)            302.83   370.19   398.32   501.14   573.70
                              633.23   703.84   772.33   945.87  1021.35
                             1031.90  1104.38  1160.15  1219.66  1300.27
                             1415.31  1439.19  1454.92  1505.44  1548.74
                             1650.98  1673.24  1695.46  1715.88  1755.72
                             1850.30  1910.31  1937.02  2117.46  2132.56
                             2151.56  2168.70  2175.20  2329.63  2371.96
                             2581.61  4413.35  4525.70  4576.31  4595.70
                             4617.82  4638.60  4643.83

 Zero-point correction=                           0.133637 (Hartree/Particle)
 Thermal correction to Energy=                    0.143900
 Thermal correction to Enthalpy=                  0.144844
 Thermal correction to Gibbs Free Energy=         0.095662
 Sum of electronic and zero-point Energies=          -3031.137304
 Sum of electronic and thermal Energies=             -3031.127041
 Sum of electronic and thermal Enthalpies=           -3031.126097
 Sum of electronic and thermal Free Energies=        -3031.175279

                     E (Thermal)             CV                S
                      KCal/Mol        Cal/Mol-Kelvin    Cal/Mol-Kelvin
 Total                   90.298             36.529            103.511
 Electronic               0.000              0.000              0.000
 Translational            0.889              2.981             41.985
 Rotational               0.889              2.981             31.292
 Vibrational             88.521             30.567             30.233
 Vibration     1          0.593              1.985              6.107
 Vibration     2          0.603              1.953              3.560
 Vibration     3          0.608              1.934              3.135
 Vibration     4          0.612              1.921              2.915
 Vibration     5          0.622              1.889              2.523
 Vibration     6          0.643              1.825              2.040
 Vibration     7          0.667              1.750              1.680
 Vibration     8          0.678              1.716              1.553
 Vibration     9          0.726              1.579              1.174
 Vibration    10          0.765              1.473              0.967
 Vibration    11          0.800              1.383              0.826
 Vibration    12          0.845              1.274              0.686
 Vibration    13          0.892              1.169              0.572

 Optimization completed.
    -- Stationary point found.
 Normal termination of Gaussian 16 at Tue Sep 17 09:48:16 2024.

 ----------------------------------------------------------------------
 #p M062X/def2tzvp geom=check guess=read scf(xqc,tight) integral(grid=u
 ltrafine) scrf(SMD, solvent=1,4-Dioxane) polar prop=efg volume
 ----------------------------------------------------------------------

 ---
 spe
 ---
 Structure from the checkpoint file:  "smiles_00098_conf_1.chk"
 Charge =  0 Multiplicity = 1

 SCF Done:  E(RM062X) =  -3033.70887456     A.U. after   12 cycles

  Exact polarizability:     170.866     -10.281     156.203      -3.060      -2.505      78.267
 Approx polarizability:     173.048      -8.932     177.974      -4.395      -5.021      98.079

 Normal termination of Gaussian 16 at Tue Sep 17 10:27:28 2024.
 Gaussian 16:  ES64L-G16RevC.02  7-Dec-2021

 ----------------------------------------------------------------------
 #p M062X/def2tzvp geom=check guess=read scf(xqc,tight) integral(grid=u
 ltrafine) scrf(SMD, solvent=1,4-Dioxane) nmr=giao
 ----------------------------------------------------------------------

 ---
 spe
 ---
 Structure from the checkpoint file:  "smiles_00098_conf_1.chk"
 Charge =  0 Multiplicity = 1

                         Standard orientation:
 ---------------------------------------------------------------------
 Center     Atomic      Atomic             Coordinates (Angstroms)
 Number     Number       Type             X           Y           Z
 ---------------------------------------------------------------------
      1          6           0        3.352752    0.752511    0.315447
      2          8           0        1.959639    0.411210    0.387935
      3          6           0        1.118086    1.330482   -0.109877
      4          8           0        1.485476    2.404124   -0.546558
      5          6           0       -0.323905    0.937533   -0.024129
      6          6           0       -1.224671    2.015519    0.000494
      7          6           0       -2.595563    1.819473    0.099179
      8          6           0       -3.099305    0.520089    0.160755
      9          6           0       -2.230856   -0.566763    0.113962
     10          6           0       -0.852665   -0.363139    0.023798
     11         35           0        0.209674   -1.946422   -0.101610
     12          1           0        3.648322    0.935961   -0.719876
     13          1           0        3.882873   -0.107461    0.722295
     14          1           0        3.557357    1.648939    0.905348
     15          1           0       -0.804897    3.012806   -0.061867
     16          1           0       -3.265851    2.671981    0.125468
     17          1           0       -4.168018    0.345913    0.236426
     18          1           0       -2.612521   -1.580263    0.139757
 ---------------------------------------------------------------------

 SCF Done:  E(RM062X) =  -3033.70887456     A.U. after    1 cycles

      1  C    Isotropic =   131.0898   Anisotropy =    72.2938

      2  O    Isotropic =   121.4258   Anisotropy =   182.6792

      3  C    Isotropic =    -2.2452   Anisotropy =   108.4479

      4  O    Isotropic =  -143.4310   Anisotropy =   681.4692

      5  C    Isotropic =    30.7109   Anisotropy =   179.7712

      6  C    Isotropic =    26.3738   Anisotropy =   219.7385

      7  C    Isotropic =    36.3006   Anisotropy =   218.1504

      8  C    Isotropic =    29.3763   Anisotropy =   220.3883

      9  C    Isotropic =    27.8377   Anisotropy =   179.7561

     10  C    Isotropic =    23.3499   Anisotropy =   153.9133

     11  Br   Isotropic =  2020.8969   Anisotropy =  1220.3843

     12  H    Isotropic =    27.9123   Anisotropy =     8.3598

     13  H    Isotropic =    27.9522   Anisotropy =     7.6108

     14  H    Isotropic =    27.9632   Anisotropy =     8.9300

     15  H    Isotropic =    22.6697   Anisotropy =     9.1899

     16  H    Isotropic =    23.6141   Anisotropy =     5.7726

     17  H    Isotropic =    23.5744   Anisotropy =     6.1310

     18  H    Isotropic =    23.4366   Anisotropy =    11.6332

 The electronic state is 1-A.
 Alpha  occ. eigenvalues -- -485.37662 -63.36137 -57.18090 -57.17849 -57.17828
 Alpha  occ. eigenvalues --  -19.67676 -19.62092 -10.68367 -10.61837 -10.58851
 Alpha  occ. eigenvalues --  -10.57890 -10.56288 -10.56194 -10.56170 -10.55610
 Alpha  occ. eigenvalues --   -9.02781  -6.85213  -6.84321  -6.84254  -2.88589
 Alpha  occ. eigenvalues --   -2.88280  -2.88212  -2.87380  -2.87379  -1.23900
 Alpha  occ. eigenvalues --   -1.14371  -0.99011  -0.90508  -0.88141  -0.83114
 Alpha  occ. eigenvalues --   -0.81537  -0.72311  -0.69796  -0.65719  -0.61789
 Alpha  occ. eigenvalues --   -0.57522  -0.57185  -0.56492  -0.53553  -0.52193
 Alpha  occ. eigenvalues --   -0.49625  -0.48846  -0.48046  -0.45516  -0.43997
 Alpha  occ. eigenvalues --   -0.43271  -0.41526  -0.38619  -0.37993  -0.36857
 Alpha  occ. eigenvalues --   -0.34412  -0.32642  -0.30520
 Alpha virt. eigenvalues --   -0.02652   0.00336   0.03340   0.07762   0.08578
 Alpha virt. eigenvalues --    0.09571   0.11359   0.11840   0.13663   0.14128
 Alpha virt. eigenvalues --    0.14797   0.15388   0.16014   0.18072   0.19256

 Mulliken charges:
               1
     1  C   -0.263878
     2  O   -0.266579
     3  C    0.367538
     4  O   -0.371068
     5  C    0.095291
     6  C   -0.164388
     7  C   -0.156976
     8  C   -0.144907
     9  C   -0.151834
    10  C   -0.041070
    11  Br  -0.086862
    12  H    0.161843
    13  H    0.157305
    14  H    0.159955
    15  H    0.186023
    16  H    0.169987
    17  H    0.171527
    18  H    0.178095
 Sum of Mulliken charges =  -0.00000

 Dipole moment (field-independent basis, Debye):
    X=             -1.3136    Y=             -0.2787    Z=              0.9365  Tot=              1.6372
 Quadrupole moment (field-independent basis, Debye-Ang):
   XX=            -58.0808   YY=            -79.2582   ZZ=            -79.4116
   XY=             -4.4342   XZ=              1.1730   YZ=              2.7888

 Normal termination of Gaussian 16 at Tue Sep 17 10:41:24 2024.
