 Gaussian 16, Revision C.02,

 ----------------------------------------------------------------------
 #p B3LYP/6-31G(d,p) EmpiricalDispersion=GD3BJ opt freq scf(xqc,tight)
 integral(grid=ultrafine)
 ----------------------------------------------------------------------

 ----------------------------------
 opt-freq conformers_unique/conf_aa
 ----------------------------------
 Symbolic Z-matrix:
 Charge =  0 Multiplicity = 1

 SCF Done:  E(RB3LYP) =  -882.650561763     A.U. after   15 cycles
 SCF Done:  E(RB3LYP) =  -882.652129959     A.U. after   12 cycles
 SCF Done:  E(RB3LYP) =  -882.652185795     A.U. after    9 cycles
 SCF Done:  E(RB3LYP) =  -882.652194598     A.U. after    9 cycles
 Optimization completed.
    -- Stationary point found.
 Normal termination of Gaussian 16 at Tue Sep 17 09:56:44 2024.

 ----------------------------------------------------------------------
 #P Geom=AllCheck Guess=TCheck SCRF=Check GenChk RB3LYP/6-31G(d,p) Freq
 ----------------------------------------------------------------------

 Structure from the checkpoint file:  "smiles_00076_conf_0.chk"
 ----------------------------------
 opt-freq conformers_unique/conf_aa
 ----------------------------------
 Charge =  0 Multiplicity = 1

 SCF Done:  E(RB3LYP) =  -882.652194598     A.U. after    1 cycles

                      1                      2                      3
                      A                      A                      A
 Frequencies --     66.7753                89.2683               180.6824
 Red. masses --      1.8908                10.3872                 3.1241
 Frc consts  --      0.0050                 0.0488                 0.0601
 IR Inten    --      0.8357                 3.8900                 1.9166

                      4                      5                      6
                      A                      A                      A
 Frequencies --    203.0381               256.7232               300.3302
 Red. masses --      9.5938                 5.7638                10.0884
 Frc consts  --      0.2330                 0.2238                 0.5361
 IR Inten    --      3.5999                 0.0201                 0.0830

                      7                      8                      9
                      A                      A                      A
 Frequencies --    398.4710               432.5642               509.9306
 Red. masses --      7.0365                 2.8685                 4.7366
 Frc consts  --      0.6583                 0.3162                 0.7257
 IR Inten    --     14.1456                 2.7817                 5.8056

                     10                     11                     12
                      A                      A                      A
 Frequencies --    516.8802               574.4106               588.3383
 Red. masses --      4.0049                 2.2469                 5.9574
 Frc consts  --      0.6304                 0.4368                 1.2150
 IR Inten    --      1.1530                 3.1722                 5.3100

                     13                     14                     15
                      A                      A                      A
 Frequencies --    617.9342               690.6570               709.1092
 Red. masses --      7.5473                 6.4730                 2.8998
 Frc consts  --      1.6980                 1.8192                 0.8591
 IR Inten    --      4.7873                 0.9118                 1.4464

                     16                     17                     18
                      A                      A                      A
 Frequencies --    761.1277               828.4517               849.1848
 Red. masses --      5.8594                 1.4272                 1.5525
 Frc consts  --      2.0000                 0.5771                 0.6596
 IR Inten    --      3.4421                21.7234                 9.8388

                     19                     20                     21
                      A                      A                      A
 Frequencies --    882.7107               890.4117               976.0768
 Red. masses --      4.9661                 1.3948                 1.3338
 Frc consts  --      2.2798                 0.6515                 0.7487
 IR Inten    --     47.0283                 8.8320                 0.0004

                     22                     23                     24
                      A                      A                      A
 Frequencies --    998.9407              1016.5923              1041.3323
 Red. masses --      2.4645                 2.0788                 5.6329
 Frc consts  --      1.4490                 1.2658                 3.5988
 IR Inten    --      1.3632                 0.0046                45.3067

                     25                     26                     27
                      A                      A                      A
 Frequencies --   1091.7513              1131.1377              1162.3209
 Red. masses --      2.0387                 1.9284                 1.2197
 Frc consts  --      1.4317                 1.4537                 0.9708
 IR Inten    --     45.8561                10.8702                 0.4806

                     28                     29                     30
                      A                      A                      A
 Frequencies --   1192.9500              1232.1653              1240.9750
 Red. masses --      2.2318                 1.7804                 1.1120
 Frc consts  --      1.8713                 1.5926                 1.0090
 IR Inten    --     12.0766                43.8891                 0.0174

                     31                     32                     33
                      A                      A                      A
 Frequencies --   1277.8607              1294.6289              1321.7579
 Red. masses --      1.8507                 1.7028                 1.8422
 Frc consts  --      1.7806                 1.6815                 1.8962
 IR Inten    --     21.9522                41.8414                24.7326

                     34                     35                     36
                      A                      A                      A
 Frequencies --   1369.6574              1458.7445              1463.0845
 Red. masses --      6.1249                 4.2463                 1.0890
 Frc consts  --      6.7698                 5.3237                 1.3735
 IR Inten    --     36.5878                11.5049                 1.1224

                     37                     38                     39
                      A                      A                      A
 Frequencies --   1495.6636              1511.1088              1633.3607
 Red. masses --      1.2350                 2.0285                 7.4980
 Frc consts  --      1.6278                 2.7291                11.7859
 IR Inten    --     11.7483                 7.5179                40.9707

                     40                     41                     42
                      A                      A                      A
 Frequencies --   1652.2428              1817.0657              3057.8332
 Red. masses --      7.2483                12.8155                 1.0602
 Frc consts  --     11.6582                24.9302                 5.8409
 IR Inten    --    134.4624               295.7429                20.0098

                     43                     44                     45
                      A                      A                      A
 Frequencies --   3079.4893              3089.8761              3121.6175
 Red. masses --      1.0614                 1.1051                 1.1036
 Frc consts  --      5.9307                 6.2164                 6.3361
 IR Inten    --     10.1837                 7.7714                 9.2965

                     46                     47                     48
                      A                      A                      A
 Frequencies --   3207.0815              3211.1806              3225.7095
 Red. masses --      1.0893                 1.0921                 1.0951
 Frc consts  --      6.6008                 6.6349                 6.7134
 IR Inten    --      1.3560                 1.8732                 2.7749

 - Thermochemistry -
 -------------------
 Temperature   298.150 Kelvin.  Pressure   1.00000 Atm.
 Atom     1 has atomic number  8 and mass  15.99491

 Molecular mass:   166.01854 amu.
 Principal axes and moments of inertia in atomic units:
                           1         2         3
     Eigenvalues --   718.634533235.049873931.49406
           X            0.99972  -0.02382  -0.00008
           Y            0.02382   0.99972   0.00009
           Z            0.00008  -0.00009   1.00000
 This molecule is an asymmetric top.
 Rotational symmetry number  1.
 Warning -- assumption of classical behavior for rotation
           may cause significant error
 Rotational temperatures (Kelvin)      0.12053     0.02677     0.02203
 Rotational constants (GHZ):           2.51135     0.55787     0.45905
 Zero-point vibrational energy     357200.2 (Joules/Mol)
                                   85.37289 (Kcal/Mol)
 Warning -- explicit consideration of  13 degrees of freedom as
           vibrations may cause significant error
 Vibrational temperatures:     96.07   128.44   259.96   292.13   369.37
          (Kelvin)            432.11   573.31   622.36   733.68   743.68
                              826.45   846.49   889.07   993.70  1020.25
                             1095.09  1191.96  1221.79  1270.02  1281.10
                             1404.36  1437.25  1462.65  1498.24  1570.79
                             1627.45  1672.32  1716.39  1772.81  1785.49
                             1838.56  1862.68  1901.71  1970.63  2098.81
                             2105.05  2151.93  2174.15  2350.04  2377.21
                             2614.35  4399.54  4430.70  4445.64  4491.31
                             4614.27  4620.17  4641.08

 Zero-point correction=                           0.136050 (Hartree/Particle)
 Thermal correction to Energy=                    0.144886
 Thermal correction to Enthalpy=                  0.145830
 Thermal correction to Gibbs Free Energy=         0.101146
 Sum of electronic and zero-point Energies=           -882.516144
 Sum of electronic and thermal Energies=              -882.507309
 Sum of electronic and thermal Enthalpies=            -882.506365
 Sum of electronic and thermal Free Energies=         -882.551048

                     E (Thermal)             CV                S
                      KCal/Mol        Cal/Mol-Kelvin    Cal/Mol-Kelvin
 Total                   90.917             33.878             94.045
 Electronic               0.000              0.000              0.000
 Translational            0.889              2.981             41.229
 Rotational               0.889              2.981             30.592
 Vibrational             89.140             27.917             22.223
 Vibration     1          0.598              1.970              4.246
 Vibration     2          0.602              1.957              3.676
 Vibration     3          0.630              1.866              2.321
 Vibration     4          0.639              1.836              2.105
 Vibration     5          0.666              1.751              1.684
 Vibration     6          0.693              1.673              1.415
 Vibration     7          0.765              1.473              0.968
 Vibration     8          0.793              1.399              0.850
 Vibration     9          0.865              1.228              0.634
 Vibration    10          0.872              1.213              0.617
 Vibration    11          0.931              1.087              0.496
 Vibration    12          0.946              1.057              0.470
 Vibration    13          0.978              0.994              0.420

 Optimization completed.
    -- Stationary point found.
 Normal termination of Gaussian 16 at Tue Sep 17 09:57:43 2024.

 ----------------------------------------------------------------------
 #p M062X/def2tzvp geom=check guess=read scf(xqc,tight) integral(grid=u
 ltrafine) scrf(SMD, solvent=1,4-Dioxane) polar prop=efg volume
 ----------------------------------------------------------------------

 ---
 spe
 ---
 Structure from the checkpoint file:  "smiles_00076_conf_0.chk"
 Charge =  0 Multiplicity = 1

 SCF Done:  E(RM062X) =  -882.596848386     A.U. after   12 cycles

  Exact polarizability:     191.150       1.450     138.835       0.010      -0.008      74.929
 Approx polarizability:     192.192       8.407     160.799       0.007      -0.012      94.087

 Normal termination of Gaussian 16 at Tue Sep 17 10:26:06 2024.
 Gaussian 16:  ES64L-G16RevC.02  7-Dec-2021

 ----------------------------------------------------------------------
 #p M062X/def2tzvp geom=check guess=read scf(xqc,tight) integral(grid=u
 ltrafine) scrf(SMD, solvent=1,4-Dioxane) nmr=giao
 ----------------------------------------------------------------------

 ---
 spe
 ---
 Structure from the checkpoint file:  "smiles_00076_conf_0.chk"
 Charge =  0 Multiplicity = 1

                         Standard orientation:
 ---------------------------------------------------------------------
 Center     Atomic      Atomic             Coordinates (Angstroms)
 Number     Number       Type             X           Y           Z
 ---------------------------------------------------------------------
      1          8           0       -3.168885   -1.449169    0.000158
      2          6           0       -2.433780   -0.480487   -0.000743
      3          6           0       -2.876782    0.991999    0.000094
      4          6           0       -1.580212    1.835572   -0.000376
      5          6           0       -0.459127    0.814976   -0.000290
      6          6           0        0.915227    1.041647   -0.000144
      7          6           0        1.756927   -0.070663    0.000116
      8         17           0        3.493412    0.182511    0.000363
      9          6           0        1.270147   -1.386150    0.000234
     10          6           0       -0.103072   -1.598507    0.000062
     11          6           0       -0.953615   -0.491537   -0.000250
     12          1           0       -3.504260    1.174169   -0.877418
     13          1           0       -3.503155    1.173599    0.878530
     14          1           0       -1.512636    2.486855   -0.878385
     15          1           0       -1.512326    2.487315    0.877265
     16          1           0        1.332583    2.042561   -0.000156
     17          1           0        1.968662   -2.214532    0.000429
     18          1           0       -0.520059   -2.600406    0.000067
 ---------------------------------------------------------------------

 SCF Done:  E(RM062X) =  -882.596848386     A.U. after    1 cycles

      1  O    Isotropic =  -355.7022   Anisotropy =  1094.1204

      2  C    Isotropic =   -49.4485   Anisotropy =   167.5622

      3  C    Isotropic =   144.7149   Anisotropy =    44.0866

      4  C    Isotropic =   157.2656   Anisotropy =    28.7685

      5  C    Isotropic =     0.0397   Anisotropy =   230.4079

      6  C    Isotropic =    36.6391   Anisotropy =   172.1876

      7  C    Isotropic =    13.5981   Anisotropy =   155.0212

      8  Cl   Isotropic =   663.7907   Anisotropy =   501.0702

      9  C    Isotropic =    36.2741   Anisotropy =   183.5866

     10  C    Isotropic =    37.9141   Anisotropy =   217.8479

     11  C    Isotropic =    26.2425   Anisotropy =   199.6845

     12  H    Isotropic =    29.1765   Anisotropy =     7.6478

     13  H    Isotropic =    29.1755   Anisotropy =     7.6504

     14  H    Isotropic =    28.6345   Anisotropy =     8.2113

     15  H    Isotropic =    28.6352   Anisotropy =     8.2120

     16  H    Isotropic =    23.5092   Anisotropy =    10.3683

     17  H    Isotropic =    23.6786   Anisotropy =     8.7106

     18  H    Isotropic =    23.1835   Anisotropy =     6.5036

 The electronic state is 1-A.
 Alpha  occ. eigenvalues -- -102.65412 -19.61941 -10.63244 -10.62274 -10.57290
 Alpha  occ. eigenvalues --  -10.56571 -10.56394 -10.56326 -10.55456 -10.55402
 Alpha  occ. eigenvalues --  -10.54722  -9.81660  -7.53855  -7.53351  -7.53330
 Alpha  occ. eigenvalues --   -1.16466  -1.00864  -0.96505  -0.90826  -0.86267
 Alpha  occ. eigenvalues --   -0.82261  -0.76794  -0.71598  -0.67168  -0.64269
 Alpha  occ. eigenvalues --   -0.57268  -0.56105  -0.55240  -0.53930  -0.51588
 Alpha  occ. eigenvalues --   -0.50625  -0.47765  -0.47622  -0.47207  -0.45162
 Alpha  occ. eigenvalues --   -0.43303  -0.42762  -0.42027  -0.39422  -0.38475
 Alpha  occ. eigenvalues --   -0.32431  -0.32329  -0.30914
 Alpha virt. eigenvalues --   -0.03515   0.00241   0.06046   0.06932   0.07098
 Alpha virt. eigenvalues --    0.09677   0.11155   0.11750   0.12977   0.13273
 Alpha virt. eigenvalues --    0.14596   0.16156   0.17791   0.18648   0.19446

 Mulliken charges:
               1
     1  O   -0.327613
     2  C    0.190311
     3  C   -0.286477
     4  C   -0.284937
     5  C    0.037593
     6  C   -0.246472
     7  C    0.126229
     8  Cl  -0.087828
     9  C   -0.174785
    10  C   -0.203285
    11  C    0.048330
    12  H    0.170558
    13  H    0.170600
    14  H    0.166729
    15  H    0.166761
    16  H    0.176104
    17  H    0.178701
    18  H    0.179480
 Sum of Mulliken charges =  -0.00000

 Dipole moment (field-independent basis, Debye):
    X=              0.6759    Y=              2.8826    Z=             -0.0009  Tot=              2.9607
 Quadrupole moment (field-independent basis, Debye-Ang):
   XX=            -81.4679   YY=            -65.4864   ZZ=            -71.2571
   XY=            -11.6838   XZ=              0.0025   YZ=              0.0003

 Normal termination of Gaussian 16 at Tue Sep 17 10:36:29 2024.
