 Gaussian 16, Revision C.02,

 ----------------------------------------------------------------------
 #p B3LYP/gen pseudo=read EmpiricalDispersion=GD3BJ opt freq scf(xqc,ti
 ght) integral(grid=ultrafine)
 ----------------------------------------------------------------------

 ----------------------------------
 opt-freq conformers_unique/conf_aa
 ----------------------------------
 Symbolic Z-matrix:
 Charge =  0 Multiplicity = 1

 SCF Done:  E(RB3LYP) =  -374.633107409     A.U. after   14 cycles
 SCF Done:  E(RB3LYP) =  -374.634846920     A.U. after   12 cycles
 SCF Done:  E(RB3LYP) =  -374.634912102     A.U. after   11 cycles
 SCF Done:  E(RB3LYP) =  -374.634914698     A.U. after    8 cycles
 Optimization completed.
    -- Stationary point found.
 Normal termination of Gaussian 16 at Tue Sep 17 09:46:58 2024.

 ------------------------------------------------------------------
 #P Geom=AllCheck Guess=TCheck SCRF=Check GenChk RB3LYP/ChkBas Freq
 ------------------------------------------------------------------

 Structure from the checkpoint file:  "smiles_00086_conf_0.chk"
 ----------------------------------
 opt-freq conformers_unique/conf_aa
 ----------------------------------
 Charge =  0 Multiplicity = 1

 SCF Done:  E(RB3LYP) =  -374.634914698     A.U. after    1 cycles

                      1                      2                      3
                      A                      A                      A
 Frequencies --     97.2190               169.7261               225.4364
 Red. masses --      5.9835                 6.5788                 4.3552
 Frc consts  --      0.0333                 0.1117                 0.1304
 IR Inten    --      2.3470                 0.6799                 6.2891

                      4                      5                      6
                      A                      A                      A
 Frequencies --    227.7947               304.1606               395.5773
 Red. masses --     11.5561                 5.9219                 1.3011
 Frc consts  --      0.3533                 0.3228                 0.1200
 IR Inten    --      1.2634                 0.0319                86.7181

                      7                      8                      9
                      A                      A                      A
 Frequencies --    424.4925               427.9959               579.6347
 Red. masses --      3.8960                 2.8186                 6.8106
 Frc consts  --      0.4136                 0.3042                 1.3482
 IR Inten    --      3.9522                 0.7057                 5.8283

                     10                     11                     12
                      A                      A                      A
 Frequencies --    587.3690               620.5424               659.1145
 Red. masses --      3.4696                 3.1073                 7.4249
 Frc consts  --      0.7053                 0.7050                 1.9005
 IR Inten    --      9.5368                 0.5472                20.1257

                     13                     14                     15
                      A                      A                      A
 Frequencies --    731.3877               772.1127               795.6684
 Red. masses --      1.4894                 1.9334                 5.2462
 Frc consts  --      0.4694                 0.6791                 1.9569
 IR Inten    --     38.2110                28.6214                 2.5577

                     16                     17                     18
                      A                      A                      A
 Frequencies --    806.0235               861.1824               886.9221
 Red. masses --      1.7999                 1.2646                 5.6141
 Frc consts  --      0.6890                 0.5526                 2.6019
 IR Inten    --     12.9042                 0.3881                50.3832

                     19                     20                     21
                      A                      A                      A
 Frequencies --    895.1248               917.6796               936.6663
 Red. masses --      1.4650                 4.0132                 1.2822
 Frc consts  --      0.6916                 1.9912                 0.6628
 IR Inten    --     12.4304                 1.8411                 0.0053

                     22                     23                     24
                      A                      A                      A
 Frequencies --   1070.3659              1099.1277              1116.0647
 Red. masses --      2.1722                 1.5123                 1.4436
 Frc consts  --      1.4663                 1.0765                 1.0595
 IR Inten    --     15.7644                 5.6416                37.4121

                     25                     26                     27
                      A                      A                      A
 Frequencies --   1167.1289              1219.4518              1275.8035
 Red. masses --      1.3551                 2.3310                 1.4797
 Frc consts  --      1.0876                 2.0423                 1.4190
 IR Inten    --      1.8322                 8.7607                10.4812

                     28                     29                     30
                      A                      A                      A
 Frequencies --   1298.0994              1356.7043              1379.8911
 Red. masses --      2.2042                 3.1259                 3.1905
 Frc consts  --      2.1884                 3.3900                 3.5793
 IR Inten    --      3.5830                30.2388                 4.8216

                     31                     32                     33
                      A                      A                      A
 Frequencies --   1454.6651              1486.8990              1500.6994
 Red. masses --      2.9627                 2.7709                 3.8025
 Frc consts  --      3.6937                 3.6094                 5.0455
 IR Inten    --     15.3559                29.0165                53.4129

                     34                     35                     36
                      A                      A                      A
 Frequencies --   1564.4821              1619.5085              1668.7788
 Red. masses --      4.2241                 5.7879                 6.6442
 Frc consts  --      6.0915                 8.9442                10.9015
 IR Inten    --      2.7934                19.8549                 0.4587

                     37                     38                     39
                      A                      A                      A
 Frequencies --   3193.3486              3217.6744              3226.0654
 Red. masses --      1.0897                 1.0918                 1.0935
 Frc consts  --      6.5471                 6.6602                 6.7055
 IR Inten    --      8.8941                 1.8051                 4.9582

                     40                     41                     42
                      A                      A                      A
 Frequencies --   3262.3228              3280.8413              3693.8301
 Red. masses --      1.0898                 1.1043                 1.0804
 Frc consts  --      6.8335                 7.0036                 8.6854
 IR Inten    --      0.7579                 4.0018                75.7807

 - Thermochemistry -
 -------------------
 Temperature   298.150 Kelvin.  Pressure   1.00000 Atm.
 Atom     1 has atomic number 53 and mass 126.90040

 Molecular mass:   242.95042 amu.
 Principal axes and moments of inertia in atomic units:
                           1         2         3
     Eigenvalues --   551.092375196.651675747.74404
           X            0.99998   0.00667   0.00002
           Y           -0.00667   0.99998  -0.00002
           Z           -0.00002   0.00002   1.00000
 This molecule is an asymmetric top.
 Rotational symmetry number  1.
 Warning -- assumption of classical behavior for rotation
           may cause significant error
 Rotational temperatures (Kelvin)      0.15717     0.01667     0.01507
 Rotational constants (GHZ):           3.27484     0.34729     0.31399
 Zero-point vibrational energy     313861.7 (Joules/Mol)
                                   75.01475 (Kcal/Mol)
 Warning -- explicit consideration of  11 degrees of freedom as
           vibrations may cause significant error
 Vibrational temperatures:    139.88   244.20   324.35   327.75   437.62
          (Kelvin)            569.15   610.75   615.79   833.97   845.09
                              892.82   948.32  1052.30  1110.90  1144.79
                             1159.69  1239.05  1276.08  1287.88  1320.34
                             1347.65  1540.02  1581.40  1605.77  1679.24
                             1754.52  1835.60  1867.68  1951.99  1985.36
                             2092.94  2139.32  2159.17  2250.94  2330.11
                             2401.00  4594.52  4629.52  4641.59  4693.75
                             4720.40  5314.60

 Zero-point correction=                           0.119544 (Hartree/Particle)
 Thermal correction to Energy=                    0.127474
 Thermal correction to Enthalpy=                  0.128419
 Thermal correction to Gibbs Free Energy=         0.085086
 Sum of electronic and zero-point Energies=           -374.515371
 Sum of electronic and thermal Energies=              -374.507440
 Sum of electronic and thermal Enthalpies=            -374.506496
 Sum of electronic and thermal Free Energies=         -374.549829

                     E (Thermal)             CV                S
                      KCal/Mol        Cal/Mol-Kelvin    Cal/Mol-Kelvin
 Total                   79.991             30.882             91.201
 Electronic               0.000              0.000              0.000
 Translational            0.889              2.981             42.364
 Rotational               0.889              2.981             31.177
 Vibrational             78.214             24.920             17.661
 Vibration     1          0.603              1.951              3.509
 Vibration     2          0.625              1.880              2.439
 Vibration     3          0.650              1.802              1.915
 Vibration     4          0.651              1.799              1.896
 Vibration     5          0.695              1.666              1.394
 Vibration     6          0.762              1.480              0.979
 Vibration     7          0.786              1.417              0.877
 Vibration     8          0.790              1.409              0.865
 Vibration     9          0.936              1.075              0.486
 Vibration    10          0.945              1.059              0.472
 Vibration    11          0.981              0.989              0.416

 Optimization completed.
    -- Stationary point found.
 Normal termination of Gaussian 16 at Tue Sep 17 09:47:48 2024.

 ----------------------------------------------------------------------
 #p M062X/def2tzvp geom=check guess=read scf(xqc,tight) integral(grid=u
 ltrafine) scrf(SMD, solvent=1,4-Dioxane) polar prop=efg volume
 ----------------------------------------------------------------------

 ---
 spe
 ---
 Structure from the checkpoint file:  "smiles_00086_conf_0.chk"
 Charge =  0 Multiplicity = 1

 SCF Done:  E(RM062X) =  -660.836087590     A.U. after   20 cycles

  Exact polarizability:     236.816       6.050     145.416      -0.003       0.001      80.997
 Approx polarizability:     236.924       2.721     176.758      -0.002       0.001     103.564

 1\1\GINC-HPC-20-21\SP\RM062X\def2TZVP\C8H6I1N1\MANTIND\17-Sep-2024\0\\
 #p M062X/def2tzvp geom=check guess=read scf(xqc,tight) integral(grid=u
 ltrafine) scrf(SMD, solvent=1,4-Dioxane) polar prop=efg volume\\spe\\0
 ,1\I,0,2.1286714425,0.107819867,0.0000918564\C,0,0.0030506627,-0.19989
 38338,0.0000392318\C,0,-0.4807597865,-1.5218786166,0.0000071725\C,0,-1
 .8495939563,-1.7629085726,-0.0000373812\C,0,-2.7081656015,-0.660862138
 6,-0.000032706\N,0,-4.0857262993,-0.5933991483,-0.0001094124\C,0,-4.47
 94020557,0.7330287364,-0.0000076634\C,0,-3.3718901386,1.5402202084,-0.

 Normal termination of Gaussian 16 at Tue Sep 17 10:24:54 2024.
 Gaussian 16:  ES64L-G16RevC.02  7-Dec-2021

 ----------------------------------------------------------------------
 #p M062X/def2tzvp geom=check guess=read scf(xqc,tight) integral(grid=u
 ltrafine) scrf(SMD, solvent=1,4-Dioxane) nmr=giao
 ----------------------------------------------------------------------

 ---
 spe
 ---
 Structure from the checkpoint file:  "smiles_00086_conf_0.chk"
 Charge =  0 Multiplicity = 1

                         Standard orientation:
 ---------------------------------------------------------------------
 Center     Atomic      Atomic             Coordinates (Angstroms)
 Number     Number       Type             X           Y           Z
 ---------------------------------------------------------------------
      1         53           0        2.369228   -0.132884   -0.000060
      2          6           0        0.245557    0.188012   -0.000007
      3          6           0       -0.230042    1.512973    0.000025
      4          6           0       -1.597355    1.762491    0.000070
      5          6           0       -2.462747    0.665792    0.000065
      6          7           0       -3.840700    0.606877    0.000142
      7          6           0       -4.242597   -0.717083    0.000040
      8          6           0       -3.140115   -1.531130    0.000082
      9          6           0       -1.985707   -0.675819    0.000032
     10          6           0       -0.599663   -0.909754    0.000002
     11          1           0        0.469565    2.339933    0.000029
     12          1           0       -1.971513    2.781854    0.000107
     13          1           0       -4.457728    1.401947    0.000066
     14          1           0       -5.292786   -0.970060    0.000032
     15          1           0       -3.146476   -2.611093    0.000090
     16          1           0       -0.209235   -1.920772   -0.000006
 ---------------------------------------------------------------------

 SCF Done:  E(RM062X) =  -660.836087590     A.U. after    1 cycles

      1  I    Isotropic =   435.7753   Anisotropy =    72.8710

      2  C    Isotropic =    41.6833   Anisotropy =   113.1398

      3  C    Isotropic =    35.6680   Anisotropy =   170.9688

      4  C    Isotropic =    54.3287   Anisotropy =   174.0458

      5  C    Isotropic =    30.8799   Anisotropy =   179.3532

      6  N    Isotropic =   101.3534   Anisotropy =   108.5549

      7  C    Isotropic =    41.4998   Anisotropy =   144.8160

      8  C    Isotropic =    67.7329   Anisotropy =   137.2542

      9  C    Isotropic =    34.0460   Anisotropy =   192.7640

     10  C    Isotropic =    35.9054   Anisotropy =   164.3788

     11  H    Isotropic =    23.8238   Anisotropy =    12.3731

     12  H    Isotropic =    23.7841   Anisotropy =     7.0739

     13  H    Isotropic =    23.4876   Anisotropy =     8.8594

     14  H    Isotropic =    24.0145   Anisotropy =     3.6757

     15  H    Isotropic =    24.6601   Anisotropy =     4.5076

     16  H    Isotropic =    23.2748   Anisotropy =    13.5783

 The electronic state is 1-A.
 Alpha  occ. eigenvalues --  -14.79682 -10.58761 -10.58154 -10.58018 -10.55254
 Alpha  occ. eigenvalues --  -10.55179 -10.55027 -10.54891 -10.53327  -7.09596
 Alpha  occ. eigenvalues --   -5.08921  -5.07910  -5.07902  -2.05751  -2.05332
 Alpha  occ. eigenvalues --   -2.05320  -2.04485  -2.04484  -1.09522  -0.95737
 Alpha  occ. eigenvalues --   -0.88758  -0.85014  -0.82074  -0.77005  -0.70822
 Alpha  occ. eigenvalues --   -0.68139  -0.65645  -0.62479  -0.56070  -0.52383
 Alpha  occ. eigenvalues --   -0.51346  -0.50736  -0.50235  -0.48070  -0.46362
 Alpha  occ. eigenvalues --   -0.42555  -0.40893  -0.38596  -0.35131  -0.33046
 Alpha  occ. eigenvalues --   -0.31486  -0.27302  -0.26575
 Alpha virt. eigenvalues --    0.00168   0.00243   0.03744   0.06891   0.08545
 Alpha virt. eigenvalues --    0.10052   0.10554   0.11786   0.12951   0.13660
 Alpha virt. eigenvalues --    0.14784   0.16847   0.17813   0.18550   0.19521

 Mulliken charges:
               1
     1  I   -0.131459
     2  C    0.098164
     3  C   -0.208494
     4  C   -0.224850
     5  C    0.111296
     6  N   -0.311589
     7  C   -0.030273
     8  C   -0.309885
     9  C    0.155878
    10  C   -0.293004
    11  H    0.179848
    12  H    0.170864
    13  H    0.269869
    14  H    0.183737
    15  H    0.158612
    16  H    0.181286
 Sum of Mulliken charges =  -0.00000

 Dipole moment (field-independent basis, Debye):
    X=             -4.8182    Y=              1.3838    Z=             -0.0000  Tot=              5.0130
 Quadrupole moment (field-independent basis, Debye-Ang):
   XX=            -57.9428   YY=            -70.0640   ZZ=            -84.9555
   XY=             -5.3488   XZ=              0.0003   YZ=              0.0001

 1\1\GINC-HPC-20-21\SP\RM062X\def2TZVP\C8H6I1N1\MANTIND\17-Sep-2024\0\\
 #p M062X/def2tzvp geom=check guess=read scf(xqc,tight) integral(grid=u
 ltrafine) scrf(SMD, solvent=1,4-Dioxane) nmr=giao\\spe\\0,1\I,0,2.1286
 714425,0.107819867,0.0000918564\C,0,0.0030506627,-0.1998938338,0.00003
 92318\C,0,-0.4807597865,-1.5218786166,0.0000071725\C,0,-1.8495939563,-
 1.7629085726,-0.0000373812\C,0,-2.7081656015,-0.6608621386,-0.00003270
 6\N,0,-4.0857262993,-0.5933991483,-0.0001094124\C,0,-4.4794020557,0.73
 30287364,-0.0000076634\C,0,-3.3718901386,1.5402202084,-0.000050045\C,0

 Normal termination of Gaussian 16 at Tue Sep 17 10:35:33 2024.
