 Gaussian 16, Revision C.02,

 ----------------------------------------------------------------------
 #p B3LYP/6-31G(d,p) EmpiricalDispersion=GD3BJ opt freq scf(xqc,tight)
 integral(grid=ultrafine)
 ----------------------------------------------------------------------

 ----------------------------------
 opt-freq conformers_unique/conf_aa
 ----------------------------------
 Symbolic Z-matrix:
 Charge =  0 Multiplicity = 1

 SCF Done:  E(RB3LYP) =  -2937.37313053     A.U. after   14 cycles
 SCF Done:  E(RB3LYP) =  -2937.37419052     A.U. after   11 cycles
 SCF Done:  E(RB3LYP) =  -2937.37423025     A.U. after    9 cycles
 SCF Done:  E(RB3LYP) =  -2937.37423541     A.U. after    8 cycles
 SCF Done:  E(RB3LYP) =  -2937.37424428     A.U. after    9 cycles
 SCF Done:  E(RB3LYP) =  -2937.37425684     A.U. after    9 cycles
 SCF Done:  E(RB3LYP) =  -2937.37427040     A.U. after   10 cycles
 SCF Done:  E(RB3LYP) =  -2937.37428002     A.U. after    8 cycles
 SCF Done:  E(RB3LYP) =  -2937.37429865     A.U. after   10 cycles
 SCF Done:  E(RB3LYP) =  -2937.37429894     A.U. after    8 cycles
 SCF Done:  E(RB3LYP) =  -2937.37429902     A.U. after    8 cycles
 SCF Done:  E(RB3LYP) =  -2937.37429910     A.U. after    7 cycles
 Optimization completed.
    -- Stationary point found.
 Normal termination of Gaussian 16 at Tue Sep 17 09:52:27 2024.

 ----------------------------------------------------------------------
 #P Geom=AllCheck Guess=TCheck SCRF=Check GenChk RB3LYP/6-31G(d,p) Freq
 ----------------------------------------------------------------------

 Structure from the checkpoint file:  "smiles_00082_conf_0.chk"
 ----------------------------------
 opt-freq conformers_unique/conf_aa
 ----------------------------------
 Charge =  0 Multiplicity = 1

 SCF Done:  E(RB3LYP) =  -2937.37429910     A.U. after    1 cycles

                      1                      2                      3
                      A                      A                      A
 Frequencies --     68.2203                72.9170               122.9038
 Red. masses --      4.3438                 2.6964                 1.9599
 Frc consts  --      0.0119                 0.0084                 0.0174
 IR Inten    --      2.7660                 0.0039                 7.4663

                      4                      5                      6
                      A                      A                      A
 Frequencies --    162.6369               201.9940               217.5413
 Red. masses --      3.5536                 1.8602                 1.2632
 Frc consts  --      0.0554                 0.0447                 0.0352
 IR Inten    --      0.0362                 1.6618                 0.2180

                      7                      8                      9
                      A                      A                      A
 Frequencies --    259.2687               314.8414               339.4607
 Red. masses --      6.5971                 2.8133                 4.1377
 Frc consts  --      0.2613                 0.1643                 0.2809
 IR Inten    --      1.2917                 0.0001                 4.8368

                     10                     11                     12
                      A                      A                      A
 Frequencies --    431.0689               453.8938               485.2778
 Red. masses --      3.1170                 2.8681                 3.5639
 Frc consts  --      0.3413                 0.3481                 0.4945
 IR Inten    --      0.0697                 3.6835                 3.5157

                     13                     14                     15
                      A                      A                      A
 Frequencies --    522.7942               596.8582               649.7346
 Red. masses --      2.5519                 4.3013                 7.1436
 Frc consts  --      0.4109                 0.9028                 1.7768
 IR Inten    --      8.2831                14.1826                 0.0310

                     16                     17                     18
                      A                      A                      A
 Frequencies --    722.6538               771.8727               810.4339
 Red. masses --      2.9736                 5.3166                 1.2512
 Frc consts  --      0.9149                 1.8663                 0.4842
 IR Inten    --      0.4230                10.5526                 0.0100

                     19                     20                     21
                      A                      A                      A
 Frequencies --    826.2269               957.3005               957.3738
 Red. masses --      1.8544                 1.3220                 1.3435
 Frc consts  --      0.7459                 0.7138                 0.7255
 IR Inten    --     50.7362                 0.0071                 0.8986

                     22                     23                     24
                      A                      A                      A
 Frequencies --    972.6950              1013.9509              1087.5684
 Red. masses --      3.0243                 4.5290                 1.5004
 Frc consts  --      1.6859                 2.7434                 1.0456
 IR Inten    --     14.5614                 9.5648                23.9642

                     25                     26                     27
                      A                      A                      A
 Frequencies --   1106.1841              1145.6714              1149.6627
 Red. masses --      2.6130                 1.2363                 1.3479
 Frc consts  --      1.8839                 0.9560                 1.0496
 IR Inten    --     15.2325                 0.6904                35.2183

                     28                     29                     30
                      A                      A                      A
 Frequencies --   1155.0651              1202.5427              1226.2598
 Red. masses --      1.3931                 1.7142                 1.1386
 Frc consts  --      1.0951                 1.4605                 1.0087
 IR Inten    --      1.1872                15.8169                26.2178

                     31                     32                     33
                      A                      A                      A
 Frequencies --   1280.9259              1341.1549              1366.4549
 Red. masses --      3.2846                 1.6113                 4.1965
 Frc consts  --      3.1753                 1.7076                 4.6167
 IR Inten    --     44.6134                 4.2968                 0.8220

                     34                     35                     36
                      A                      A                      A
 Frequencies --   1389.7251              1452.5924              1469.8676
 Red. masses --      3.3748                 1.5179                 1.8064
 Frc consts  --      3.8402                 1.8871                 2.2994
 IR Inten    --    166.9512                 0.0313                 1.2507

                     37                     38                     39
                      A                      A                      A
 Frequencies --   1495.8513              1498.9107              1502.7237
 Red. masses --      1.0447                 1.2239                 1.0629
 Frc consts  --      1.3773                 1.6202                 1.4142
 IR Inten    --      3.2879                27.3810                17.5440

                     40                     41                     42
                      A                      A                      A
 Frequencies --   1528.5090              1542.9633              1552.7903
 Red. masses --      1.0739                 1.1460                 2.0413
 Frc consts  --      1.4783                 1.6075                 2.8998
 IR Inten    --      3.8136                 5.1742               261.0200

                     43                     44                     45
                      A                      A                      A
 Frequencies --   1615.1032              1660.5678              2987.8749
 Red. masses --      6.8465                 5.5231                 1.0502
 Frc consts  --     10.5225                 8.9731                 5.5241
 IR Inten    --      3.3679                89.4248                74.6354

                     46                     47                     48
                      A                      A                      A
 Frequencies --   2996.0199              3069.3483              3070.5383
 Red. masses --      1.0544                 1.0877                 1.0895
 Frc consts  --      5.5764                 6.0374                 6.0520
 IR Inten    --     85.2037                15.8965                54.8163

                     49                     50                     51
                      A                      A                      A
 Frequencies --   3137.9908              3148.8914              3211.1575
 Red. masses --      1.0986                 1.0961                 1.0891
 Frc consts  --      6.3738                 6.4032                 6.6166
 IR Inten    --      2.7048                40.8682                 6.2738

                     52                     53                     54
                      A                      A                      A
 Frequencies --   3211.7338              3233.9308              3234.9661
 Red. masses --      1.0896                 1.0917                 1.0924
 Frc consts  --      6.6223                 6.7268                 6.7357
 IR Inten    --      1.0255                13.5240                 6.4168

 - Thermochemistry -
 -------------------
 Temperature   298.150 Kelvin.  Pressure   1.00000 Atm.
 Atom     1 has atomic number  6 and mass  12.00000

 Molecular mass:   198.99966 amu.
 Principal axes and moments of inertia in atomic units:
                           1         2         3
     Eigenvalues --   519.673644902.329105394.38840
           X            1.00000   0.00000   0.00259
           Y           -0.00000   1.00000  -0.00000
           Z           -0.00259   0.00000   1.00000
 This molecule is an asymmetric top.
 Rotational symmetry number  1.
 Warning -- assumption of classical behavior for rotation
           may cause significant error
 Rotational temperatures (Kelvin)      0.16667     0.01767     0.01606
 Rotational constants (GHZ):           3.47284     0.36814     0.33456
 Zero-point vibrational energy     430688.3 (Joules/Mol)
                                  102.93698 (Kcal/Mol)
 Warning -- explicit consideration of  14 degrees of freedom as
           vibrations may cause significant error
 Vibrational temperatures:     98.15   104.91   176.83   234.00   290.62
          (Kelvin)            312.99   373.03   452.99   488.41   620.21
                              653.05   698.21   752.18   858.75   934.82
                             1039.74  1110.55  1166.03  1188.76  1377.34
                             1377.45  1399.49  1458.85  1564.77  1591.55
                             1648.37  1654.11  1661.88  1730.19  1764.31
                             1842.97  1929.62  1966.02  1999.50  2089.96
                             2114.81  2152.20  2156.60  2162.08  2199.18
                             2219.98  2234.12  2323.77  2389.19  4298.89
                             4310.60  4416.11  4417.82  4514.87  4530.55
                             4620.14  4620.97  4652.91  4654.39

 Zero-point correction=                           0.164041 (Hartree/Particle)
 Thermal correction to Energy=                    0.174117
 Thermal correction to Enthalpy=                  0.175062
 Thermal correction to Gibbs Free Energy=         0.127281
 Sum of electronic and zero-point Energies=          -2937.210259
 Sum of electronic and thermal Energies=             -2937.200182
 Sum of electronic and thermal Enthalpies=           -2937.199238
 Sum of electronic and thermal Free Energies=        -2937.247018

                     E (Thermal)             CV                S
                      KCal/Mol        Cal/Mol-Kelvin    Cal/Mol-Kelvin
 Total                  109.260             36.786            100.562
 Electronic               0.000              0.000              0.000
 Translational            0.889              2.981             41.769
 Rotational               0.889              2.981             30.997
 Vibrational            107.483             30.825             27.796
 Vibration     1          0.598              1.969              4.204
 Vibration     2          0.599              1.967              4.073
 Vibration     3          0.610              1.930              3.054
 Vibration     4          0.623              1.888              2.519
 Vibration     5          0.639              1.837              2.115
 Vibration     6          0.646              1.814              1.979
 Vibration     7          0.668              1.747              1.667
 Vibration     8          0.702              1.645              1.337
 Vibration     9          0.719              1.597              1.215
 Vibration    10          0.792              1.403              0.855
 Vibration    11          0.812              1.352              0.784
 Vibration    12          0.841              1.283              0.696
 Vibration    13          0.878              1.200              0.604
 Vibration    14          0.955              1.038              0.455

 Optimization completed on the basis of negligible forces.
    -- Stationary point found.
 Normal termination of Gaussian 16 at Tue Sep 17 09:54:11 2024.

 ----------------------------------------------------------------------
 #p M062X/def2tzvp geom=check guess=read scf(xqc,tight) integral(grid=u
 ltrafine) scrf(SMD, solvent=1,4-Dioxane) polar prop=efg volume
 ----------------------------------------------------------------------

 ---
 spe
 ---
 Structure from the checkpoint file:  "smiles_00082_conf_0.chk"
 Charge =  0 Multiplicity = 1

 SCF Done:  E(RM062X) =  -2939.78639344     A.U. after   13 cycles

  Exact polarizability:     214.616       0.001     137.388       0.560       0.009      85.766
 Approx polarizability:     204.100       0.000     157.913      -1.061       0.012     104.449

 Normal termination of Gaussian 16 at Tue Sep 17 10:28:42 2024.
 Gaussian 16:  ES64L-G16RevC.02  7-Dec-2021

 ----------------------------------------------------------------------
 #p M062X/def2tzvp geom=check guess=read scf(xqc,tight) integral(grid=u
 ltrafine) scrf(SMD, solvent=1,4-Dioxane) nmr=giao
 ----------------------------------------------------------------------

 ---
 spe
 ---
 Structure from the checkpoint file:  "smiles_00082_conf_0.chk"
 Charge =  0 Multiplicity = 1

                         Standard orientation:
 ---------------------------------------------------------------------
 Center     Atomic      Atomic             Coordinates (Angstroms)
 Number     Number       Type             X           Y           Z
 ---------------------------------------------------------------------
      1          6           0        3.838640   -1.244663    0.083464
      2          7           0        3.124791   -0.000052   -0.135955
      3          6           0        3.838806    1.244631    0.082369
      4          6           0        1.737865    0.000013   -0.078537
      5          6           0        1.004564   -1.207080   -0.052795
      6          6           0       -0.385967   -1.205554   -0.027322
      7          6           0       -1.079965    0.000009   -0.016876
      8         35           0       -2.992330    0.000006    0.023378
      9          6           0       -0.385957    1.205566   -0.026726
     10          6           0        1.004582    1.207098   -0.052184
     11          1           0        4.910119   -1.060998   -0.003225
     12          1           0        3.570439   -1.988492   -0.674557
     13          1           0        3.641659   -1.682746    1.074333
     14          1           0        4.910178    1.061099   -0.005965
     15          1           0        3.643293    1.682837    1.073493
     16          1           0        3.569351    1.988303   -0.675335
     17          1           0        1.515952   -2.160644   -0.052626
     18          1           0       -0.927196   -2.144594   -0.010373
     19          1           0       -0.927174    2.144603   -0.009267
     20          1           0        1.515958    2.160666   -0.051386
 ---------------------------------------------------------------------

 SCF Done:  E(RM062X) =  -2939.78639344     A.U. after    1 cycles

      1  C    Isotropic =   143.9811   Anisotropy =    57.1383

      2  N    Isotropic =   192.9107   Anisotropy =   105.5640

      3  C    Isotropic =   143.9873   Anisotropy =    57.1135

      4  C    Isotropic =    13.9608   Anisotropy =   200.2744

      5  C    Isotropic =    54.3172   Anisotropy =   176.8784

      6  C    Isotropic =    31.0683   Anisotropy =   183.5522

      7  C    Isotropic =    42.8077   Anisotropy =   112.9039

      8  Br   Isotropic =  2151.2571   Anisotropy =  1249.6453

      9  C    Isotropic =    31.0687   Anisotropy =   183.5507

     10  C    Isotropic =    54.3244   Anisotropy =   176.8640

     11  H    Isotropic =    29.1175   Anisotropy =     8.2607

     12  H    Isotropic =    28.5506   Anisotropy =     9.0720

     13  H    Isotropic =    29.0956   Anisotropy =     9.0724

     14  H    Isotropic =    29.1176   Anisotropy =     8.2621

     15  H    Isotropic =    29.0946   Anisotropy =     9.0767

     16  H    Isotropic =    28.5521   Anisotropy =     9.0681

     17  H    Isotropic =    24.5576   Anisotropy =     9.9644

     18  H    Isotropic =    23.8196   Anisotropy =    10.3348

     19  H    Isotropic =    23.8197   Anisotropy =    10.3350

     20  H    Isotropic =    24.5579   Anisotropy =     9.9639

 The electronic state is 1-A.
 Alpha  occ. eigenvalues -- -485.36614 -63.35093 -57.17035 -57.16801 -57.16800
 Alpha  occ. eigenvalues --  -14.76586 -10.58759 -10.58556 -10.56394 -10.56393
 Alpha  occ. eigenvalues --  -10.54957 -10.54955 -10.54112 -10.54111  -9.01735
 Alpha  occ. eigenvalues --   -6.84132  -6.83267  -6.83264  -2.87509  -2.87192
 Alpha  occ. eigenvalues --   -2.87183  -2.86376  -2.86376  -1.05909  -0.96408
 Alpha  occ. eigenvalues --   -0.88596  -0.85178  -0.81669  -0.81355  -0.73617
 Alpha  occ. eigenvalues --   -0.69431  -0.65415  -0.60139  -0.55642  -0.53997
 Alpha  occ. eigenvalues --   -0.52750  -0.51968  -0.49525  -0.49094  -0.46893
 Alpha  occ. eigenvalues --   -0.45716  -0.45241  -0.44288  -0.41314  -0.40244
 Alpha  occ. eigenvalues --   -0.38366  -0.34347  -0.32853  -0.31420  -0.24459
 Alpha virt. eigenvalues --    0.01550   0.03141   0.04441   0.07311   0.09777
 Alpha virt. eigenvalues --    0.10350   0.11641   0.12481   0.12734   0.15236
 Alpha virt. eigenvalues --    0.15684   0.15770   0.17001   0.17093   0.18007

 Mulliken charges:
               1
     1  C   -0.382861
     2  N   -0.176338
     3  C   -0.382907
     4  C    0.251872
     5  C   -0.259225
     6  C   -0.169829
     7  C    0.007605
     8  Br  -0.138149
     9  C   -0.169852
    10  C   -0.259304
    11  H    0.153130
    12  H    0.161731
    13  H    0.168668
    14  H    0.153153
    15  H    0.168670
    16  H    0.161727
    17  H    0.181394
    18  H    0.174560
    19  H    0.174557
    20  H    0.181398
 Sum of Mulliken charges =  -0.00000

 Dipole moment (field-independent basis, Debye):
    X=              4.8134    Y=              0.0001    Z=              0.2702  Tot=              4.8209
 Quadrupole moment (field-independent basis, Debye-Ang):
   XX=            -63.3564   YY=            -65.8313   ZZ=            -77.6115
   XY=              0.0003   XZ=              0.9429   YZ=              0.0010

 Normal termination of Gaussian 16 at Tue Sep 17 10:41:06 2024.
