 Gaussian 16, Revision C.02,

 ----------------------------------------------------------------------
 #p B3LYP/6-31G(d,p) EmpiricalDispersion=GD3BJ opt freq scf(xqc,tight)
 integral(grid=ultrafine)
 ----------------------------------------------------------------------

 ----------------------------------
 opt-freq conformers_unique/conf_ac
 ----------------------------------
 Symbolic Z-matrix:
 Charge =  0 Multiplicity = 1

 SCF Done:  E(RB3LYP) =  -3011.41513147     A.U. after   15 cycles
 SCF Done:  E(RB3LYP) =  -3011.41652791     A.U. after   12 cycles
 SCF Done:  E(RB3LYP) =  -3011.41657417     A.U. after   12 cycles
 SCF Done:  E(RB3LYP) =  -3011.41664414     A.U. after   11 cycles
 SCF Done:  E(RB3LYP) =  -3011.41665023     A.U. after   11 cycles
 SCF Done:  E(RB3LYP) =  -3011.41667136     A.U. after    9 cycles
 SCF Done:  E(RB3LYP) =  -3011.41668520     A.U. after   11 cycles
 SCF Done:  E(RB3LYP) =  -3011.41668676     A.U. after    9 cycles
 SCF Done:  E(RB3LYP) =  -3011.41668689     A.U. after    7 cycles
 Optimization completed.
    -- Stationary point found.
 Normal termination of Gaussian 16 at Tue Sep 17 09:47:04 2024.

 ----------------------------------------------------------------------
 #P Geom=AllCheck Guess=TCheck SCRF=Check GenChk RB3LYP/6-31G(d,p) Freq
 ----------------------------------------------------------------------

 Structure from the checkpoint file:  "smiles_00008_conf_2.chk"
 ----------------------------------
 opt-freq conformers_unique/conf_ac
 ----------------------------------
 Charge =  0 Multiplicity = 1

 SCF Done:  E(RB3LYP) =  -3011.41668689     A.U. after    1 cycles

                      1                      2                      3
                      A                      A                      A
 Frequencies --     44.8607                55.7410                94.1462
 Red. masses --      4.5667                 6.2206                 6.4691
 Frc consts  --      0.0054                 0.0114                 0.0338
 IR Inten    --      1.8278                 3.1913                 1.5274

                      4                      5                      6
                      A                      A                      A
 Frequencies --    160.8437               195.6210               232.5581
 Red. masses --      4.8978                 1.0789                 7.1447
 Frc consts  --      0.0747                 0.0243                 0.2277
 IR Inten    --      0.7301                 0.1061                 0.2657

                      7                      8                      9
                      A                      A                      A
 Frequencies --    263.9525               332.1379               379.1652
 Red. masses --      9.6687                 4.3847                 4.3924
 Frc consts  --      0.3969                 0.2850                 0.3721
 IR Inten    --      1.5369                 2.6530                 1.9332

                     10                     11                     12
                      A                      A                      A
 Frequencies --    427.0707               454.8222               500.8730
 Red. masses --      3.0971                 6.8006                 3.0171
 Frc consts  --      0.3328                 0.8289                 0.4460
 IR Inten    --      0.2965                27.7305                 3.6292

                     13                     14                     15
                      A                      A                      A
 Frequencies --    527.2361               547.3264               647.7167
 Red. masses --      1.6551                 2.9075                 4.8674
 Frc consts  --      0.2711                 0.5132                 1.2032
 IR Inten    --     25.8774                16.0849                 8.5296

                     16                     17                     18
                      A                      A                      A
 Frequencies --    651.3654               690.6547               732.3221
 Red. masses --      1.8779                 5.2973                 3.8468
 Frc consts  --      0.4694                 1.4888                 1.2155
 IR Inten    --     76.3859                 6.6964                 7.1714

                     19                     20                     21
                      A                      A                      A
 Frequencies --    801.8907               835.6480               849.5977
 Red. masses --      3.7147                 1.2562                 1.6797
 Frc consts  --      1.4074                 0.5168                 0.7143
 IR Inten    --     10.0389                 0.3543                36.3440

                     22                     23                     24
                      A                      A                      A
 Frequencies --    928.7846               969.4213               971.9498
 Red. masses --      3.8851                 1.3366                 1.3364
 Frc consts  --      1.9746                 0.7401                 0.7439
 IR Inten    --      7.1896                 0.0183                 0.2079

                     25                     26                     27
                      A                      A                      A
 Frequencies --   1028.0797              1030.9156              1057.6025
 Red. masses --      3.1936                 1.7784                 1.7352
 Frc consts  --      1.9888                 1.1136                 1.1435
 IR Inten    --     43.6396                 9.2477                 9.9836

                     28                     29                     30
                      A                      A                      A
 Frequencies --   1098.8156              1140.0153              1208.4433
 Red. masses --      2.6157                 1.3219                 1.1238
 Frc consts  --      1.8608                 1.0122                 0.9670
 IR Inten    --     32.6142                 5.2146                 6.4508

                     31                     32                     33
                      A                      A                      A
 Frequencies --   1258.4136              1330.1590              1337.7134
 Red. masses --      2.4808                 1.7762                 2.1320
 Frc consts  --      2.3147                 1.8516                 2.2479
 IR Inten    --     20.5231                54.7831               120.5505

                     34                     35                     36
                      A                      A                      A
 Frequencies --   1347.9160              1412.4985              1429.8815
 Red. masses --      4.1340                 1.4305                 2.4983
 Frc consts  --      4.4253                 1.6815                 3.0095
 IR Inten    --    179.5757               106.7872                 8.4741

                     37                     38                     39
                      A                      A                      A
 Frequencies --   1485.3894              1491.7786              1502.2389
 Red. masses --      1.1034                 1.7474                 1.1470
 Frc consts  --      1.4344                 2.2911                 1.5251
 IR Inten    --     26.5653                 7.0761                15.4351

                     40                     41                     42
                      A                      A                      A
 Frequencies --   1540.5499              1630.7368              1654.1292
 Red. masses --      2.6051                 6.5304                 5.9214
 Frc consts  --      3.6428                10.2319                 9.5458
 IR Inten    --    202.1116                 3.2455                19.2329

                     43                     44                     45
                      A                      A                      A
 Frequencies --   1795.6802              3064.3860              3136.4960
 Red. masses --      8.2188                 1.0388                 1.0976
 Frc consts  --     15.6142                 5.7472                 6.3617
 IR Inten    --    485.7043                 2.7386                 7.1824

                     46                     47                     48
                      A                      A                      A
 Frequencies --   3174.0462              3192.5110              3217.7593
 Red. masses --      1.1042                 1.0898                 1.0892
 Frc consts  --      6.5541                 6.5441                 6.6444
 IR Inten    --      8.8294                 7.8066                 1.7430

                     49                     50                     51
                      A                      A                      A
 Frequencies --   3223.8560              3234.8933              3601.3065
 Red. masses --      1.0940                 1.0941                 1.0756
 Frc consts  --      6.6990                 6.7459                 8.2187
 IR Inten    --      2.2320                 4.4065                29.6922

 - Thermochemistry -
 -------------------
 Temperature   298.150 Kelvin.  Pressure   1.00000 Atm.
 Atom     1 has atomic number  6 and mass  12.00000

 Molecular mass:   212.97893 amu.
 Principal axes and moments of inertia in atomic units:
                           1         2         3
     Eigenvalues --   556.823726500.196716909.05522
           X            0.99992  -0.01218   0.00461
           Y            0.01218   0.99992   0.00170
           Z           -0.00463  -0.00165   0.99999
 This molecule is an asymmetric top.
 Rotational symmetry number  1.
 Warning -- assumption of classical behavior for rotation
           may cause significant error
 Rotational temperatures (Kelvin)      0.15555     0.01332     0.01254
 Rotational constants (GHZ):           3.24114     0.27764     0.26121
 Zero-point vibrational energy     382338.0 (Joules/Mol)
                                   91.38097 (Kcal/Mol)
 Warning -- explicit consideration of  14 degrees of freedom as
           vibrations may cause significant error
 Vibrational temperatures:     64.54    80.20   135.46   231.42   281.46
          (Kelvin)            334.60   379.77   477.87   545.53   614.46
                              654.39   720.64   758.58   787.48   931.92
                              937.17   993.70  1053.65  1153.74  1202.31
                             1222.38  1336.31  1394.78  1398.42  1479.18
                             1483.26  1521.65  1580.95  1640.23  1738.68
                             1810.58  1913.80  1924.67  1939.35  2032.27
                             2057.28  2137.14  2146.34  2161.39  2216.51
                             2346.27  2379.92  2583.58  4408.97  4512.72
                             4566.74  4593.31  4629.64  4638.41  4654.29
                             5181.48

 Zero-point correction=                           0.145625 (Hartree/Particle)
 Thermal correction to Energy=                    0.155986
 Thermal correction to Enthalpy=                  0.156930
 Thermal correction to Gibbs Free Energy=         0.107737
 Sum of electronic and zero-point Energies=          -3011.271062
 Sum of electronic and thermal Energies=             -3011.260701
 Sum of electronic and thermal Enthalpies=           -3011.259757
 Sum of electronic and thermal Free Energies=        -3011.308950

                     E (Thermal)             CV                S
                      KCal/Mol        Cal/Mol-Kelvin    Cal/Mol-Kelvin
 Total                   97.883             38.085            103.535
 Electronic               0.000              0.000              0.000
 Translational            0.889              2.981             41.972
 Rotational               0.889              2.981             31.592
 Vibrational             96.105             32.123             29.972
 Vibration     1          0.595              1.979              5.032
 Vibration     2          0.596              1.975              4.603
 Vibration     3          0.603              1.953              3.572
 Vibration     4          0.622              1.890              2.540
 Vibration     5          0.636              1.846              2.174
 Vibration     6          0.653              1.791              1.859
 Vibration     7          0.671              1.739              1.635
 Vibration     8          0.714              1.611              1.250
 Vibration     9          0.749              1.515              1.042
 Vibration    10          0.789              1.411              0.868
 Vibration    11          0.813              1.350              0.781
 Vibration    12          0.856              1.248              0.656
 Vibration    13          0.882              1.190              0.593
 Vibration    14          0.903              1.146              0.550

                           ! Non-Optimized Parameters !
 Normal termination of Gaussian 16 at Tue Sep 17 09:48:12 2024.

 ----------------------------------------------------------------------
 #p M062X/def2tzvp geom=check guess=read scf(xqc,tight) integral(grid=u
 ltrafine) scrf(SMD, solvent=1,4-Dioxane) polar prop=efg volume
 ----------------------------------------------------------------------

 ---
 spe
 ---
 Structure from the checkpoint file:  "smiles_00008_conf_2.chk"
 Charge =  0 Multiplicity = 1

 SCF Done:  E(RM062X) =  -3013.84931553     A.U. after   12 cycles

  Exact polarizability:     217.943       2.650     130.995      -3.370       6.623      84.943
 Approx polarizability:     211.667       6.000     153.430      -5.613      10.291     104.537

 Normal termination of Gaussian 16 at Tue Sep 17 10:23:00 2024.
 Gaussian 16:  ES64L-G16RevC.02  7-Dec-2021

 ----------------------------------------------------------------------
 #p M062X/def2tzvp geom=check guess=read scf(xqc,tight) integral(grid=u
 ltrafine) scrf(SMD, solvent=1,4-Dioxane) nmr=giao
 ----------------------------------------------------------------------

 ---
 spe
 ---
 Structure from the checkpoint file:  "smiles_00008_conf_2.chk"
 Charge =  0 Multiplicity = 1

                         Standard orientation:
 ---------------------------------------------------------------------
 Center     Atomic      Atomic             Coordinates (Angstroms)
 Number     Number       Type             X           Y           Z
 ---------------------------------------------------------------------
      1          6           0        3.570812   -1.433383    0.679924
      2          6           0        3.827038   -0.076284    0.056847
      3          8           0        4.955338    0.361616   -0.107279
      4          7           0        2.738762    0.694906   -0.319693
      5          6           0        1.354010    0.455870   -0.221896
      6          6           0        0.781420   -0.781215   -0.546417
      7          6           0       -0.594728   -0.971155   -0.445300
      8          6           0       -1.408398    0.087262   -0.051308
      9         35           0       -3.295441   -0.168850    0.072981
     10          6           0       -0.862337    1.334381    0.244620
     11          6           0        0.515141    1.510694    0.166215
     12          1           0        3.495064   -2.199027   -0.098812
     13          1           0        2.657343   -1.462849    1.277068
     14          1           0        4.435306   -1.671243    1.299777
     15          1           0        3.023403    1.624852   -0.601463
     16          1           0        1.404713   -1.591856   -0.901738
     17          1           0       -1.032735   -1.930701   -0.693227
     18          1           0       -1.504808    2.153328    0.545503
     19          1           0        0.950358    2.472951    0.418517
 ---------------------------------------------------------------------

 SCF Done:  E(RM062X) =  -3013.84931553     A.U. after    1 cycles

      1  C    Isotropic =   162.8008   Anisotropy =    34.1642

      2  C    Isotropic =    -5.0668   Anisotropy =   144.9930

      3  O    Isotropic =  -165.2502   Anisotropy =   678.9380

      4  N    Isotropic =    92.5732   Anisotropy =   130.6983

      5  C    Isotropic =    24.4912   Anisotropy =   185.4577

      6  C    Isotropic =    40.4927   Anisotropy =   191.7609

      7  C    Isotropic =    30.8092   Anisotropy =   186.0401

      8  C    Isotropic =    30.9172   Anisotropy =   136.5131

      9  Br   Isotropic =  2096.2420   Anisotropy =  1284.4933

     10  C    Isotropic =    30.1516   Anisotropy =   186.7149

     11  C    Isotropic =    41.8030   Anisotropy =   178.3928

     12  H    Isotropic =    29.6505   Anisotropy =     6.4962

     13  H    Isotropic =    29.6529   Anisotropy =     5.1146

     14  H    Isotropic =    29.9214   Anisotropy =     7.9521

     15  H    Isotropic =    24.6766   Anisotropy =     5.5162

     16  H    Isotropic =    23.9525   Anisotropy =     8.8086

     17  H    Isotropic =    23.6438   Anisotropy =    10.4203

     18  H    Isotropic =    23.6757   Anisotropy =    10.0126

     19  H    Isotropic =    24.2400   Anisotropy =     7.3846

 The electronic state is 1-A.
 Alpha  occ. eigenvalues -- -485.37878 -63.36356 -57.18302 -57.18065 -57.18060
 Alpha  occ. eigenvalues --  -19.60056 -14.78590 -10.65660 -10.60686 -10.60585
 Alpha  occ. eigenvalues --  -10.56500 -10.56496 -10.56174 -10.56166 -10.54216
 Alpha  occ. eigenvalues --   -9.03002  -6.85410  -6.84531  -6.84516  -2.88786
 Alpha  occ. eigenvalues --   -2.88467  -2.88447  -2.87629  -2.87628  -1.16873
 Alpha  occ. eigenvalues --   -1.05435  -0.97952  -0.89943  -0.86712  -0.84133
 Alpha  occ. eigenvalues --   -0.81853  -0.72217  -0.70541  -0.66082  -0.62475
 Alpha  occ. eigenvalues --   -0.56693  -0.55404  -0.54687  -0.52653  -0.52259
 Alpha  occ. eigenvalues --   -0.50639  -0.48647  -0.47431  -0.46720  -0.44836
 Alpha  occ. eigenvalues --   -0.42884  -0.42442  -0.39905  -0.35548  -0.35035
 Alpha  occ. eigenvalues --   -0.34251  -0.32964  -0.28276
 Alpha virt. eigenvalues --   -0.00185   0.00042   0.03243   0.05930   0.07193
 Alpha virt. eigenvalues --    0.08822   0.10187   0.11476   0.12368   0.13668
 Alpha virt. eigenvalues --    0.14319   0.16254   0.16556   0.17007   0.17686

 Mulliken charges:
               1
     1  C   -0.535225
     2  C    0.351726
     3  O   -0.394263
     4  N   -0.377614
     5  C    0.282279
     6  C   -0.251321
     7  C   -0.143590
     8  C    0.016764
     9  Br  -0.111791
    10  C   -0.156041
    11  C   -0.237558
    12  H    0.180959
    13  H    0.190872
    14  H    0.175003
    15  H    0.264211
    16  H    0.194676
    17  H    0.183860
    18  H    0.183476
    19  H    0.183577
 Sum of Mulliken charges =  -0.00000

 Dipole moment (field-independent basis, Debye):
    X=             -1.5757    Y=             -0.4361    Z=              0.2696  Tot=              1.6570
 Quadrupole moment (field-independent basis, Debye-Ang):
   XX=           -106.3829   YY=            -66.8261   ZZ=            -78.7200
   XY=             -5.0751   XZ=              1.5601   YZ=              1.3717

 Normal termination of Gaussian 16 at Tue Sep 17 10:35:18 2024.
