 Gaussian 16, Revision C.02,

 ----------------------------------------------------------------------
 #p B3LYP/6-31G(d,p) EmpiricalDispersion=GD3BJ opt freq scf(xqc,tight)
 integral(grid=ultrafine)
 ----------------------------------------------------------------------

 ----------------------------------
 opt-freq conformers_unique/conf_ab
 ----------------------------------
 Symbolic Z-matrix:
 Charge =  0 Multiplicity = 1

 SCF Done:  E(RB3LYP) =  -3011.42024432     A.U. after   15 cycles
 SCF Done:  E(RB3LYP) =  -3011.42147347     A.U. after   12 cycles
 SCF Done:  E(RB3LYP) =  -3011.42152121     A.U. after   11 cycles
 SCF Done:  E(RB3LYP) =  -3011.42154748     A.U. after   11 cycles
 SCF Done:  E(RB3LYP) =  -3011.42154880     A.U. after    9 cycles
 SCF Done:  E(RB3LYP) =  -3011.42155145     A.U. after    8 cycles
 SCF Done:  E(RB3LYP) =  -3011.42155154     A.U. after    7 cycles
 SCF Done:  E(RB3LYP) =  -3011.42155158     A.U. after    7 cycles
 SCF Done:  E(RB3LYP) =  -3011.42155160     A.U. after    7 cycles
 Optimization completed.
    -- Stationary point found.
 Normal termination of Gaussian 16 at Tue Sep 17 09:46:56 2024.

 ----------------------------------------------------------------------
 #P Geom=AllCheck Guess=TCheck SCRF=Check GenChk RB3LYP/6-31G(d,p) Freq
 ----------------------------------------------------------------------

 Structure from the checkpoint file:  "smiles_00008_conf_1.chk"
 ----------------------------------
 opt-freq conformers_unique/conf_ab
 ----------------------------------
 Charge =  0 Multiplicity = 1

 SCF Done:  E(RB3LYP) =  -3011.42155160     A.U. after    1 cycles

                      1                      2                      3
                      A                      A                      A
 Frequencies --      5.2028                51.5514                64.2629
 Red. masses --      1.1199                 6.1522                 3.3143
 Frc consts  --      0.0000                 0.0096                 0.0081
 IR Inten    --      1.6445                 2.0735                 4.4375

                      4                      5                      6
                      A                      A                      A
 Frequencies --    128.1701               151.2946               235.6143
 Red. masses --      6.5236                 5.3049                10.8253
 Frc consts  --      0.0631                 0.0715                 0.3541
 IR Inten    --      3.3710                 0.0336                 0.0057

                      7                      8                      9
                      A                      A                      A
 Frequencies --    257.6597               335.9812               374.4504
 Red. masses --      5.1435                 5.4946                 4.9882
 Frc consts  --      0.2012                 0.3654                 0.4121
 IR Inten    --      5.6583                 0.0427                 0.7025

                     10                     11                     12
                      A                      A                      A
 Frequencies --    408.1542               424.7212               517.6020
 Red. masses --      4.6261                 3.1088                 2.1988
 Frc consts  --      0.4541                 0.3304                 0.3471
 IR Inten    --     15.5155                 0.0440                40.4165

                     13                     14                     15
                      A                      A                      A
 Frequencies --    538.3906               566.2379               623.8139
 Red. masses --      1.5414                 4.2175                 2.0839
 Frc consts  --      0.2632                 0.7967                 0.4778
 IR Inten    --     36.2723                 2.9137                 5.7140

                     16                     17                     18
                      A                      A                      A
 Frequencies --    647.3177               699.6743               728.0809
 Red. masses --      7.0026                 5.9915                 3.4864
 Frc consts  --      1.7288                 1.7281                 1.0889
 IR Inten    --      0.2147                20.1602                 0.2662

                     19                     20                     21
                      A                      A                      A
 Frequencies --    826.0325               854.3479               863.3405
 Red. masses --      1.4021                 4.8279                 1.4059
 Frc consts  --      0.5637                 2.0763                 0.6174
 IR Inten    --     21.5658                 2.9639                29.8978

                     22                     23                     24
                      A                      A                      A
 Frequencies --    956.0095               969.3577               996.9928
 Red. masses --      1.3346                 5.8928                 1.3201
 Frc consts  --      0.7187                 3.2624                 0.7731
 IR Inten    --      0.0183                 5.1514                 0.7504

                     25                     26                     27
                      A                      A                      A
 Frequencies --   1019.5899              1027.5241              1055.6911
 Red. masses --      1.7237                 3.6699                 1.6873
 Frc consts  --      1.0557                 2.2829                 1.1079
 IR Inten    --      8.6644                35.2839                 9.6668

                     28                     29                     30
                      A                      A                      A
 Frequencies --   1098.3635              1143.6836              1207.5469
 Red. masses --      2.4908                 1.3131                 1.1319
 Frc consts  --      1.7704                 1.0120                 0.9724
 IR Inten    --     27.9967                13.4767                 9.4516

                     31                     32                     33
                      A                      A                      A
 Frequencies --   1251.0253              1282.0359              1331.0777
 Red. masses --      3.1209                 2.2698                 1.3600
 Frc consts  --      2.8778                 2.1981                 1.4197
 IR Inten    --     54.7212                66.3836                 6.3945

                     34                     35                     36
                      A                      A                      A
 Frequencies --   1352.0882              1413.0485              1437.5725
 Red. masses --      6.2611                 1.2500                 2.9441
 Frc consts  --      6.7439                 1.4705                 3.5848
 IR Inten    --     99.5894                28.8201                77.1535

                     37                     38                     39
                      A                      A                      A
 Frequencies --   1482.6965              1503.2129              1533.8359
 Red. masses --      1.0455                 1.0856                 2.2716
 Frc consts  --      1.3542                 1.4454                 3.1488
 IR Inten    --      5.7057                 8.1784                71.2538

                     40                     41                     42
                      A                      A                      A
 Frequencies --   1558.6631              1641.1866              1654.1494
 Red. masses --      2.3545                 4.7737                 5.8187
 Frc consts  --      3.3702                 7.5756                 9.3805
 IR Inten    --    479.0214                41.9813                20.2871

                     43                     44                     45
                      A                      A                      A
 Frequencies --   1791.0956              3061.1548              3139.6545
 Red. masses --      9.0044                 1.0359                 1.1029
 Frc consts  --     17.0194                 5.7193                 6.4055
 IR Inten    --    205.1178                 8.3294                12.3554

                     46                     47                     48
                      A                      A                      A
 Frequencies --   3146.0671              3172.7303              3218.9570
 Red. masses --      1.1021                 1.0897                 1.0914
 Frc consts  --      6.4267                 6.4627                 6.6632
 IR Inten    --      8.1077                15.5241                 1.7355

                     49                     50                     51
                      A                      A                      A
 Frequencies --   3222.8949              3270.4551              3640.4242
 Red. masses --      1.0935                 1.0925                 1.0769
 Frc consts  --      6.6918                 6.8846                 8.4090
 IR Inten    --      2.1166                 9.0089                18.4449

 - Thermochemistry -
 -------------------
 Temperature   298.150 Kelvin.  Pressure   1.00000 Atm.
 Atom     1 has atomic number  6 and mass  12.00000

 Molecular mass:   212.97893 amu.
 Principal axes and moments of inertia in atomic units:
                           1         2         3
     Eigenvalues --   514.721846578.521687082.06553
           X            0.99999  -0.00415  -0.00012
           Y            0.00415   0.99999  -0.00002
           Z            0.00012   0.00002   1.00000
 This molecule is an asymmetric top.
 Rotational symmetry number  1.
 Warning -- assumption of classical behavior for rotation
           may cause significant error
 Rotational temperatures (Kelvin)      0.16827     0.01317     0.01223
 Rotational constants (GHZ):           3.50625     0.27434     0.25483
 Zero-point vibrational energy     382091.4 (Joules/Mol)
                                   91.32203 (Kcal/Mol)
 Warning -- explicit consideration of  14 degrees of freedom as
           vibrations may cause significant error
 Vibrational temperatures:      7.49    74.17    92.46   184.41   217.68
          (Kelvin)            339.00   370.71   483.40   538.75   587.24
                              611.08   744.71   774.62   814.69   897.53
                              931.35  1006.68  1047.55  1188.48  1229.22
                             1242.15  1375.48  1394.69  1434.45  1466.96
                             1478.38  1518.90  1580.30  1645.51  1737.39
                             1799.95  1844.56  1915.12  1945.35  2033.06
                             2068.35  2133.27  2162.79  2206.85  2242.57
                             2361.30  2379.95  2576.99  4404.32  4517.26
                             4526.49  4564.85  4631.36  4637.03  4705.46
                             5237.76

 Zero-point correction=                           0.145531 (Hartree/Particle)
 Thermal correction to Energy=                    0.156186
 Thermal correction to Enthalpy=                  0.157130
 Thermal correction to Gibbs Free Energy=         0.105034
 Sum of electronic and zero-point Energies=          -3011.276021
 Sum of electronic and thermal Energies=             -3011.265365
 Sum of electronic and thermal Enthalpies=           -3011.264421
 Sum of electronic and thermal Free Energies=        -3011.316517

                     E (Thermal)             CV                S
                      KCal/Mol        Cal/Mol-Kelvin    Cal/Mol-Kelvin
 Total                   98.008             38.135            109.646
 Electronic               0.000              0.000              0.000
 Translational            0.889              2.981             41.972
 Rotational               0.889              2.981             31.550
 Vibrational             96.231             32.173             36.124
 Vibration     1          0.593              1.987              9.309
 Vibration     2          0.596              1.977              4.757
 Vibration     3          0.597              1.971              4.322
 Vibration     4          0.611              1.925              2.973
 Vibration     5          0.619              1.901              2.656
 Vibration     6          0.655              1.786              1.836
 Vibration     7          0.667              1.750              1.678
 Vibration     8          0.717              1.604              1.231
 Vibration     9          0.746              1.525              1.062
 Vibration    10          0.773              1.453              0.933
 Vibration    11          0.787              1.416              0.876
 Vibration    12          0.873              1.211              0.616
 Vibration    13          0.893              1.165              0.569
 Vibration    14          0.922              1.104              0.512

                           ! Non-Optimized Parameters !
 Normal termination of Gaussian 16 at Tue Sep 17 09:48:02 2024.

 ----------------------------------------------------------------------
 #p M062X/def2tzvp geom=check guess=read scf(xqc,tight) integral(grid=u
 ltrafine) scrf(SMD, solvent=1,4-Dioxane) polar prop=efg volume
 ----------------------------------------------------------------------

 ---
 spe
 ---
 Structure from the checkpoint file:  "smiles_00008_conf_1.chk"
 Charge =  0 Multiplicity = 1

 SCF Done:  E(RM062X) =  -3013.85309215     A.U. after   12 cycles

  Exact polarizability:     221.134       0.048     136.716      -0.059       0.003      79.904
 Approx polarizability:     204.664       1.203     166.575      -0.018       0.010      98.887

 Normal termination of Gaussian 16 at Tue Sep 17 10:20:50 2024.
 Gaussian 16:  ES64L-G16RevC.02  7-Dec-2021

 ----------------------------------------------------------------------
 #p M062X/def2tzvp geom=check guess=read scf(xqc,tight) integral(grid=u
 ltrafine) scrf(SMD, solvent=1,4-Dioxane) nmr=giao
 ----------------------------------------------------------------------

 ---
 spe
 ---
 Structure from the checkpoint file:  "smiles_00008_conf_1.chk"
 Charge =  0 Multiplicity = 1

                         Standard orientation:
 ---------------------------------------------------------------------
 Center     Atomic      Atomic             Coordinates (Angstroms)
 Number     Number       Type             X           Y           Z
 ---------------------------------------------------------------------
      1          6           0       -5.124765    0.337663    0.007202
      2          6           0       -3.736638   -0.282005   -0.002516
      3          8           0       -3.576534   -1.493478   -0.003408
      4          7           0       -2.705513    0.632259   -0.003540
      5          6           0       -1.318527    0.392971   -0.002420
      6          6           0       -0.470936    1.510763   -0.002519
      7          6           0        0.910777    1.357929   -0.001392
      8          6           0        1.451349    0.074720   -0.000230
      9         35           0        3.348980   -0.146816    0.001285
     10          6           0        0.624768   -1.044871   -0.000201
     11          6           0       -0.760201   -0.894008   -0.001306
     12          1           0       -5.130299    1.429267   -0.051469
     13          1           0       -5.636957    0.029751    0.922728
     14          1           0       -5.690478   -0.067470   -0.835152
     15          1           0       -2.970929    1.605627   -0.003163
     16          1           0       -0.895363    2.511664   -0.003438
     17          1           0        1.559571    2.225614   -0.001422
     18          1           0        1.058258   -2.038081    0.000667
     19          1           0       -1.412209   -1.754780   -0.001385
 ---------------------------------------------------------------------

 SCF Done:  E(RM062X) =  -3013.85309215     A.U. after    1 cycles

      1  C    Isotropic =   159.0526   Anisotropy =    51.8355

      2  C    Isotropic =    -3.1243   Anisotropy =   135.1853

      3  O    Isotropic =  -159.1135   Anisotropy =   749.1748

      4  N    Isotropic =    91.2494   Anisotropy =   140.1613

      5  C    Isotropic =    24.5152   Anisotropy =   185.8649

      6  C    Isotropic =    48.0894   Anisotropy =   165.3485

      7  C    Isotropic =    31.7149   Anisotropy =   184.8805

      8  C    Isotropic =    33.3570   Anisotropy =   130.6212

      9  Br   Isotropic =  2103.7035   Anisotropy =  1287.3599

     10  C    Isotropic =    29.6238   Anisotropy =   187.6127

     11  C    Isotropic =    46.1994   Anisotropy =   199.1328

     12  H    Isotropic =    30.1192   Anisotropy =     6.0006

     13  H    Isotropic =    29.6015   Anisotropy =     6.6024

     14  H    Isotropic =    29.6535   Anisotropy =     6.7066

     15  H    Isotropic =    24.3149   Anisotropy =     8.5677

     16  H    Isotropic =    24.4967   Anisotropy =     7.4695

     17  H    Isotropic =    23.7923   Anisotropy =    10.0604

     18  H    Isotropic =    23.6568   Anisotropy =    10.4355

     19  H    Isotropic =    22.1217   Anisotropy =    11.0691

 The electronic state is 1-A.
 Alpha  occ. eigenvalues -- -485.37351 -63.35829 -57.17774 -57.17538 -57.17534
 Alpha  occ. eigenvalues --  -19.60350 -14.79501 -10.65871 -10.60200 -10.59944
 Alpha  occ. eigenvalues --  -10.55983 -10.55771 -10.55666 -10.54839 -10.54481
 Alpha  occ. eigenvalues --   -9.02473  -6.84877  -6.84004  -6.83991  -2.88254
 Alpha  occ. eigenvalues --   -2.87936  -2.87918  -2.87105  -2.87105  -1.17066
 Alpha  occ. eigenvalues --   -1.06032  -0.97548  -0.89870  -0.85879  -0.84804
 Alpha  occ. eigenvalues --   -0.80393  -0.72489  -0.69994  -0.65911  -0.62314
 Alpha  occ. eigenvalues --   -0.57114  -0.54767  -0.53654  -0.52761  -0.51834
 Alpha  occ. eigenvalues --   -0.49990  -0.48853  -0.47889  -0.46792  -0.44407
 Alpha  occ. eigenvalues --   -0.42599  -0.42152  -0.40113  -0.35259  -0.35070
 Alpha  occ. eigenvalues --   -0.33900  -0.32278  -0.27582
 Alpha virt. eigenvalues --    0.00265   0.00747   0.03726   0.05889   0.07252
 Alpha virt. eigenvalues --    0.09483   0.10707   0.12294   0.13108   0.13640
 Alpha virt. eigenvalues --    0.15626   0.15943   0.15975   0.17748   0.18808

 Mulliken charges:
               1
     1  C   -0.478842
     2  C    0.404090
     3  O   -0.419266
     4  N   -0.370841
     5  C    0.253926
     6  C   -0.237414
     7  C   -0.161802
     8  C    0.014735
     9  Br  -0.120070
    10  C   -0.153110
    11  C   -0.230374
    12  H    0.140651
    13  H    0.175235
    14  H    0.174400
    15  H    0.263247
    16  H    0.172357
    17  H    0.180278
    18  H    0.181501
    19  H    0.211299
 Sum of Mulliken charges =  -0.00000

 Dipole moment (field-independent basis, Debye):
    X=             -2.9778    Y=              4.3072    Z=              0.0155  Tot=              5.2364
 Quadrupole moment (field-independent basis, Debye-Ang):
   XX=            -70.9539   YY=            -72.7954   ZZ=            -80.3841
   XY=            -14.2445   XZ=             -0.0782   YZ=             -0.0143

 Normal termination of Gaussian 16 at Tue Sep 17 10:32:19 2024.
