 Gaussian 16, Revision C.02,

 ----------------------------------------------------------------------
 #p B3LYP/6-31G(d,p) EmpiricalDispersion=GD3BJ opt freq scf(xqc,tight)
 integral(grid=ultrafine)
 ----------------------------------------------------------------------

 ----------------------------------
 opt-freq conformers_unique/conf_aa
 ----------------------------------
 Symbolic Z-matrix:
 Charge =  0 Multiplicity = 1

 SCF Done:  E(RB3LYP) =  -2858.74383818     A.U. after   15 cycles
 SCF Done:  E(RB3LYP) =  -2858.74510723     A.U. after   11 cycles
 SCF Done:  E(RB3LYP) =  -2858.74517719     A.U. after   10 cycles
 SCF Done:  E(RB3LYP) =  -2858.74518283     A.U. after    9 cycles
 Optimization completed.
    -- Stationary point found.
 Normal termination of Gaussian 16 at Tue Sep 17 09:50:22 2024.

 ----------------------------------------------------------------------
 #P Geom=AllCheck Guess=TCheck SCRF=Check GenChk RB3LYP/6-31G(d,p) Freq
 ----------------------------------------------------------------------

 Structure from the checkpoint file:  "smiles_00063_conf_0.chk"
 ----------------------------------
 opt-freq conformers_unique/conf_aa
 ----------------------------------
 Charge =  0 Multiplicity = 1

 SCF Done:  E(RB3LYP) =  -2858.74518283     A.U. after    1 cycles

                      1                      2                      3
                      A                      A                      A
 Frequencies --     63.3601               104.0339               218.2995
 Red. masses --      1.1011                 3.7730                 4.9795
 Frc consts  --      0.0026                 0.0241                 0.1398
 IR Inten    --      0.0747                 0.3402                 0.4444

                      4                      5                      6
                      A                      A                      A
 Frequencies --    290.3449               301.4164               366.3930
 Red. masses --     11.3506                 3.8741                 2.9736
 Frc consts  --      0.5638                 0.2074                 0.2352
 IR Inten    --      5.8588                 0.1427                 0.9700

                      7                      8                      9
                      A                      A                      A
 Frequencies --    425.4197               500.4493               605.0062
 Red. masses --      3.5450                 2.8347                 5.3234
 Frc consts  --      0.3780                 0.4183                 1.1480
 IR Inten    --      3.1710                 3.8464                12.0568

                     10                     11                     12
                      A                      A                      A
 Frequencies --    646.5334               749.7202               826.9809
 Red. masses --      8.1983                 5.0388                 6.0424
 Frc consts  --      2.0191                 1.6687                 2.4347
 IR Inten    --      3.9729                 2.2357                19.9251

                     13                     14                     15
                      A                      A                      A
 Frequencies --    842.4297               941.1514               988.4494
 Red. masses --      1.3468                 1.3016                 1.3271
 Frc consts  --      0.5631                 0.6793                 0.7640
 IR Inten    --     19.2516                 0.4153                 0.0577

                     16                     17                     18
                      A                      A                      A
 Frequencies --   1012.4257              1045.1423              1069.6511
 Red. masses --      1.4966                 3.1139                 1.5327
 Frc consts  --      0.9038                 2.0041                 1.0332
 IR Inten    --      0.2048                20.4230                 4.3914

                     19                     20                     21
                      A                      A                      A
 Frequencies --   1117.5826              1164.4488              1250.6131
 Red. masses --      3.7499                 1.3049                 2.7085
 Frc consts  --      2.7595                 1.0425                 2.4959
 IR Inten    --    104.1877                10.3122                 6.4269

                     22                     23                     24
                      A                      A                      A
 Frequencies --   1314.2159              1326.0385              1409.7611
 Red. masses --      8.1711                 1.4724                 2.5202
 Frc consts  --      8.3151                 1.5254                 2.9510
 IR Inten    --      0.1141                 0.5925                35.4582

                     25                     26                     27
                      A                      A                      A
 Frequencies --   1430.8981              1498.6192              1502.6710
 Red. masses --      1.2553                 1.0431                 1.6907
 Frc consts  --      1.5143                 1.3803                 2.2493
 IR Inten    --      0.0317                 6.0298                94.9344

                     28                     29                     30
                      A                      A                      A
 Frequencies --   1508.5749              1614.7778              1642.6836
 Red. masses --      1.3804                 5.9729                 5.6197
 Frc consts  --      1.8509                 9.1761                 8.9346
 IR Inten    --     37.7132                26.8684                27.9840

                     31                     32                     33
                      A                      A                      A
 Frequencies --   3044.8783              3102.8789              3130.8271
 Red. masses --      1.0371                 1.1013                 1.1015
 Frc consts  --      5.6650                 6.2472                 6.3613
 IR Inten    --     26.2853                15.4016                11.6318

                     34                     35                     36
                      A                      A                      A
 Frequencies --   3166.7520              3184.6230              3233.4496
 Red. masses --      1.0909                 1.0905                 1.0945
 Frc consts  --      6.4455                 6.5163                 6.7420
 IR Inten    --     26.9186                10.0203                 1.2787

 - Thermochemistry -
 -------------------
 Temperature   298.150 Kelvin.  Pressure   1.00000 Atm.
 Atom     1 has atomic number  6 and mass  12.00000

 Molecular mass:   170.96836 amu.
 Principal axes and moments of inertia in atomic units:
                           1         2         3
     Eigenvalues --   316.415592783.143643088.35847
           X            1.00000   0.00168  -0.00002
           Y           -0.00168   1.00000  -0.00001
           Z            0.00002   0.00001   1.00000
 This molecule is an asymmetric top.
 Rotational symmetry number  1.
 Rotational temperatures (Kelvin)      0.27373     0.03112     0.02805
 Rotational constants (GHZ):           5.70371     0.64845     0.58437
 Zero-point vibrational energy     278978.1 (Joules/Mol)
                                   66.67737 (Kcal/Mol)
 Warning -- explicit consideration of   9 degrees of freedom as
           vibrations may cause significant error
 Vibrational temperatures:     91.16   149.68   314.08   417.74   433.67
          (Kelvin)            527.16   612.08   720.03   870.47   930.22
                             1078.68  1189.84  1212.07  1354.11  1422.16
                             1456.65  1503.73  1538.99  1607.95  1675.38
                             1799.35  1890.86  1907.87  2028.33  2058.74
                             2156.18  2162.01  2170.50  2323.31  2363.46
                             4380.90  4464.35  4504.56  4556.25  4581.96
                             4652.21

 Zero-point correction=                           0.106257 (Hartree/Particle)
 Thermal correction to Energy=                    0.113675
 Thermal correction to Enthalpy=                  0.114619
 Thermal correction to Gibbs Free Energy=         0.072775
 Sum of electronic and zero-point Energies=          -2858.638926
 Sum of electronic and thermal Energies=             -2858.631508
 Sum of electronic and thermal Enthalpies=           -2858.630564
 Sum of electronic and thermal Free Energies=        -2858.672407

                     E (Thermal)             CV                S
                      KCal/Mol        Cal/Mol-Kelvin    Cal/Mol-Kelvin
 Total                   71.332             26.443             88.068
 Electronic               0.000              0.000              0.000
 Translational            0.889              2.981             41.317
 Rotational               0.889              2.981             29.388
 Vibrational             69.555             20.481             17.363
 Vibration     1          0.597              1.972              4.350
 Vibration     2          0.605              1.946              3.377
 Vibration     3          0.646              1.813              1.973
 Vibration     4          0.686              1.692              1.472
 Vibration     5          0.693              1.671              1.409
 Vibration     6          0.739              1.541              1.095
 Vibration     7          0.787              1.415              0.874
 Vibration     8          0.856              1.249              0.657
 Vibration     9          0.964              1.021              0.441

                           ! Non-Optimized Parameters !
 Normal termination of Gaussian 16 at Tue Sep 17 09:51:02 2024.

 ----------------------------------------------------------------------
 #p M062X/def2tzvp geom=check guess=read scf(xqc,tight) integral(grid=u
 ltrafine) scrf(SMD, solvent=1,4-Dioxane) polar prop=efg volume
 ----------------------------------------------------------------------

 ---
 spe
 ---
 Structure from the checkpoint file:  "smiles_00063_conf_0.chk"
 Charge =  0 Multiplicity = 1

 SCF Done:  E(RM062X) =  -2861.18226904     A.U. after   12 cycles

  Exact polarizability:     161.120       1.802     104.793      -0.017      -0.001      64.491
 Approx polarizability:     159.214       1.602     126.145      -0.016       0.001      79.010

 Normal termination of Gaussian 16 at Tue Sep 17 09:57:57 2024.
 Gaussian 16:  ES64L-G16RevC.02  7-Dec-2021

 ----------------------------------------------------------------------
 #p M062X/def2tzvp geom=check guess=read scf(xqc,tight) integral(grid=u
 ltrafine) scrf(SMD, solvent=1,4-Dioxane) nmr=giao
 ----------------------------------------------------------------------

 ---
 spe
 ---
 Structure from the checkpoint file:  "smiles_00063_conf_0.chk"
 Charge =  0 Multiplicity = 1

                         Standard orientation:
 ---------------------------------------------------------------------
 Center     Atomic      Atomic             Coordinates (Angstroms)
 Number     Number       Type             X           Y           Z
 ---------------------------------------------------------------------
      1          6           0       -3.928166   -0.073042    0.000674
      2          6           0       -2.424234   -0.008382   -0.000327
      3          6           0       -1.735696    1.212551   -0.000380
      4          6           0       -0.346735    1.229303   -0.000244
      5          6           0        0.305100   -0.005920   -0.000105
      6         35           0        2.226535   -0.023180    0.000157
      7          7           0       -0.303022   -1.173278   -0.000292
      8          6           0       -1.644074   -1.166748   -0.000463
      9          1           0       -4.347984    0.434625   -0.874406
     10          1           0       -4.279042   -1.108047   -0.011750
     11          1           0       -4.345674    0.412227    0.889579
     12          1           0       -2.286621    2.149370   -0.000615
     13          1           0        0.216102    2.154176   -0.000372
     14          1           0       -2.121505   -2.144684   -0.000822
 ---------------------------------------------------------------------

 SCF Done:  E(RM062X) =  -2861.18226904     A.U. after    1 cycles

      1  C    Isotropic =   167.7017   Anisotropy =    34.7988

      2  C    Isotropic =    28.4600   Anisotropy =   226.6153

      3  C    Isotropic =    21.5621   Anisotropy =   220.9241

      4  C    Isotropic =    36.2426   Anisotropy =   174.2964

      5  C    Isotropic =     5.9887   Anisotropy =   110.8586

      6  Br   Isotropic =  1953.2436   Anisotropy =  1485.4626

      7  N    Isotropic =  -138.2905   Anisotropy =   568.6608

      8  C    Isotropic =    10.9841   Anisotropy =   173.7105

      9  H    Isotropic =    29.4209   Anisotropy =     8.2945

     10  H    Isotropic =    29.6023   Anisotropy =     7.9567

     11  H    Isotropic =    29.4186   Anisotropy =     8.3192

     12  H    Isotropic =    23.5116   Anisotropy =     8.3857

     13  H    Isotropic =    23.7702   Anisotropy =    10.7056

     14  H    Isotropic =    22.7483   Anisotropy =     8.3009

 The electronic state is 1-A.
 Alpha  occ. eigenvalues -- -485.37149 -63.35648 -57.17586 -57.17358 -57.17346
 Alpha  occ. eigenvalues --  -14.76506 -10.63423 -10.58561 -10.56841 -10.56706
 Alpha  occ. eigenvalues --  -10.56473 -10.54153  -9.02301  -6.84694  -6.83849
 Alpha  occ. eigenvalues --   -6.83809  -2.88070  -2.87770  -2.87727  -2.86941
 Alpha  occ. eigenvalues --   -2.86940  -1.07603  -0.92797  -0.90761  -0.85229
 Alpha  occ. eigenvalues --   -0.78290  -0.72970  -0.68937  -0.58960  -0.57246
 Alpha  occ. eigenvalues --   -0.53523  -0.51039  -0.48092  -0.47565  -0.47394
 Alpha  occ. eigenvalues --   -0.45975  -0.42338  -0.37438  -0.35433  -0.35102
 Alpha  occ. eigenvalues --   -0.34055  -0.30201
 Alpha virt. eigenvalues --   -0.00963   0.00652   0.03979   0.07814   0.10303
 Alpha virt. eigenvalues --    0.11586   0.12380   0.13918   0.14042   0.16369
 Alpha virt. eigenvalues --    0.17375   0.18310   0.19178   0.22078   0.22412

 Mulliken charges:
               1
     1  C   -0.481067
     2  C    0.070368
     3  C   -0.125451
     4  C   -0.206040
     5  C    0.152585
     6  Br  -0.116566
     7  N   -0.232083
     8  C   -0.074051
     9  H    0.169237
    10  H    0.154166
    11  H    0.169578
    12  H    0.175958
    13  H    0.180552
    14  H    0.162815
 Sum of Mulliken charges =  -0.00000

 Dipole moment (field-independent basis, Debye):
    X=             -4.1816    Y=              2.1454    Z=              0.0015  Tot=              4.6998
 Quadrupole moment (field-independent basis, Debye-Ang):
   XX=            -50.7701   YY=            -57.1114   ZZ=            -61.8717
   XY=              0.7382   XZ=             -0.0051   YZ=             -0.0011

 Normal termination of Gaussian 16 at Tue Sep 17 10:01:45 2024.
