 Gaussian 16, Revision C.02,

 ----------------------------------------------------------------------
 #p B3LYP/6-31G(d,p) EmpiricalDispersion=GD3BJ opt freq scf(xqc,tight)
 integral(grid=ultrafine)
 ----------------------------------------------------------------------

 ----------------------------------
 opt-freq conformers_unique/conf_aa
 ----------------------------------
 Symbolic Z-matrix:
 Charge =  0 Multiplicity = 1

 SCF Done:  E(RB3LYP) =  -2934.96995256     A.U. after   14 cycles
 SCF Done:  E(RB3LYP) =  -2934.97137788     A.U. after   12 cycles
 SCF Done:  E(RB3LYP) =  -2934.97141461     A.U. after    9 cycles
 SCF Done:  E(RB3LYP) =  -2934.97141740     A.U. after    8 cycles
 Optimization completed.
    -- Stationary point found.
 Normal termination of Gaussian 16 at Tue Sep 17 09:55:07 2024.

 ----------------------------------------------------------------------
 #P Geom=AllCheck Guess=TCheck SCRF=Check GenChk RB3LYP/6-31G(d,p) Freq
 ----------------------------------------------------------------------

 Structure from the checkpoint file:  "smiles_00059_conf_0.chk"
 ----------------------------------
 opt-freq conformers_unique/conf_aa
 ----------------------------------
 Charge =  0 Multiplicity = 1

 SCF Done:  E(RB3LYP) =  -2934.97141740     A.U. after    1 cycles

                      1                      2                      3
                      A                      A                      A
 Frequencies --    138.9110               159.9831               213.3568
 Red. masses --      5.6987                 7.8665                 4.0487
 Frc consts  --      0.0648                 0.1186                 0.1086
 IR Inten    --      0.0000                 1.5421                 8.9552

                      4                      5                      6
                      A                      A                      A
 Frequencies --    274.0228               303.1265               429.7563
 Red. masses --      4.5138                10.4502                 1.3337
 Frc consts  --      0.1997                 0.5657                 0.1451
 IR Inten    --      0.3412                 1.5851                71.3115

                      7                      8                      9
                      A                      A                      A
 Frequencies --    456.8619               517.6949               585.3993
 Red. masses --      4.1600                 4.0228                 3.3563
 Frc consts  --      0.5116                 0.6352                 0.6777
 IR Inten    --      4.2952                 2.2563                 0.8065

                     10                     11                     12
                      A                      A                      A
 Frequencies --    587.0002               626.7333               631.1605
 Red. masses --      6.9908                 6.5927                 2.8643
 Frc consts  --      1.4192                 1.5257                 0.6723
 IR Inten    --      9.4652                 0.4063                 1.7438

                     13                     14                     15
                      A                      A                      A
 Frequencies --    738.8916               762.8771               824.1408
 Red. masses --      1.3139                 1.3581                 3.3315
 Frc consts  --      0.4226                 0.4657                 1.3332
 IR Inten    --     57.3439                20.0218                14.5688

                     16                     17                     18
                      A                      A                      A
 Frequencies --    835.7965               864.9177               899.5138
 Red. masses --      5.7380                 1.3375                 5.4625
 Frc consts  --      2.3616                 0.5895                 2.6041
 IR Inten    --     11.4115                 3.6011                19.7342

                     19                     20                     21
                      A                      A                      A
 Frequencies --    905.3317               935.6044               968.7375
 Red. masses --      1.3864                 4.2160                 1.3056
 Frc consts  --      0.6695                 2.1744                 0.7219
 IR Inten    --      0.2627                14.4358                 1.0787

                     22                     23                     24
                      A                      A                      A
 Frequencies --   1078.4664              1097.0944              1116.6351
 Red. masses --      1.9749                 1.6189                 1.3727
 Frc consts  --      1.3533                 1.1480                 1.0085
 IR Inten    --      2.4125                16.7453                 7.4976

                     25                     26                     27
                      A                      A                      A
 Frequencies --   1162.8342              1220.9257              1246.3561
 Red. masses --      1.5407                 1.8078                 1.5288
 Frc consts  --      1.2275                 1.5878                 1.3992
 IR Inten    --     19.2695                17.5925                 5.9342

                     28                     29                     30
                      A                      A                      A
 Frequencies --   1321.2668              1367.4883              1380.3928
 Red. masses --      2.7194                 2.2454                 4.8449
 Frc consts  --      2.7971                 2.4740                 5.4393
 IR Inten    --      6.0580                20.0526                51.7598

                     31                     32                     33
                      A                      A                      A
 Frequencies --   1453.2290              1471.6024              1536.0567
 Red. masses --      2.4999                 3.4916                 3.0734
 Frc consts  --      3.1106                 4.4551                 4.2725
 IR Inten    --     18.8395                23.2481                16.4818

                     34                     35                     36
                      A                      A                      A
 Frequencies --   1562.9865              1615.9754              1678.1308
 Red. masses --      4.6662                 5.7142                 7.3842
 Frc consts  --      6.7162                 8.7918                12.2519
 IR Inten    --      0.2353                23.9781                 1.5732

                     37                     38                     39
                      A                      A                      A
 Frequencies --   3189.5963              3205.1707              3222.1929
 Red. masses --      1.0865                 1.0936                 1.0941
 Frc consts  --      6.5123                 6.6191                 6.6926
 IR Inten    --      3.5557                19.6492                 4.6915

                     40                     41                     42
                      A                      A                      A
 Frequencies --   3259.8727              3279.4738              3682.9178
 Red. masses --      1.0901                 1.1040                 1.0804
 Frc consts  --      6.8252                 6.9955                 8.6343
 IR Inten    --      1.4418                 3.5663                74.5429

 - Thermochemistry -
 -------------------
 Temperature   298.150 Kelvin.  Pressure   1.00000 Atm.
 Atom     1 has atomic number 35 and mass  78.91834

 Molecular mass:   194.96836 amu.
 Principal axes and moments of inertia in atomic units:
                           1         2         3
     Eigenvalues --  1049.664482477.528903527.19338
           X            0.99979  -0.02038  -0.00000
           Y            0.02038   0.99979  -0.00000
           Z            0.00000   0.00000   1.00000
 This molecule is an asymmetric top.
 Rotational symmetry number  1.
 Warning -- assumption of classical behavior for rotation
           may cause significant error
 Rotational temperatures (Kelvin)      0.08252     0.03496     0.02456
 Rotational constants (GHZ):           1.71935     0.72844     0.51166
 Zero-point vibrational energy     315864.9 (Joules/Mol)
                                   75.49352 (Kcal/Mol)
 Warning -- explicit consideration of  10 degrees of freedom as
           vibrations may cause significant error
 Vibrational temperatures:    199.86   230.18   306.97   394.26   436.13
          (Kelvin)            618.32   657.32   744.85   842.26   844.56
                              901.73   908.10  1063.10  1097.61  1185.75
                             1202.52  1244.42  1294.20  1302.57  1346.13
                             1393.80  1551.67  1578.47  1606.59  1673.06
                             1756.64  1793.23  1901.01  1967.51  1986.08
                             2090.87  2117.31  2210.04  2248.79  2325.03
                             2414.46  4589.12  4611.53  4636.02  4690.23
                             4718.43  5298.90

 Zero-point correction=                           0.120307 (Hartree/Particle)
 Thermal correction to Energy=                    0.127976
 Thermal correction to Enthalpy=                  0.128920
 Thermal correction to Gibbs Free Energy=         0.086808
 Sum of electronic and zero-point Energies=          -2934.851111
 Sum of electronic and thermal Energies=             -2934.843442
 Sum of electronic and thermal Enthalpies=           -2934.842498
 Sum of electronic and thermal Free Energies=        -2934.884609

                     E (Thermal)             CV                S
                      KCal/Mol        Cal/Mol-Kelvin    Cal/Mol-Kelvin
 Total                   80.306             30.290             88.631
 Electronic               0.000              0.000              0.000
 Translational            0.889              2.981             41.708
 Rotational               0.889              2.981             30.596
 Vibrational             78.528             24.329             16.327
 Vibration     1          0.615              1.914              2.819
 Vibration     2          0.622              1.891              2.550
 Vibration     3          0.644              1.821              2.015
 Vibration     4          0.676              1.721              1.571
 Vibration     5          0.695              1.668              1.400
 Vibration     6          0.791              1.405              0.859
 Vibration     7          0.815              1.346              0.775
 Vibration     8          0.873              1.211              0.615
 Vibration     9          0.942              1.063              0.475
 Vibration    10          0.944              1.060              0.473

 Optimization completed.
    -- Stationary point found.
 Normal termination of Gaussian 16 at Tue Sep 17 09:55:52 2024.

 ----------------------------------------------------------------------
 #p M062X/def2tzvp geom=check guess=read scf(xqc,tight) integral(grid=u
 ltrafine) scrf(SMD, solvent=1,4-Dioxane) polar prop=efg volume
 ----------------------------------------------------------------------

 ---
 spe
 ---
 Structure from the checkpoint file:  "smiles_00059_conf_0.chk"
 Charge =  0 Multiplicity = 1

 SCF Done:  E(RM062X) =  -2937.40672270     A.U. after   13 cycles

  Exact polarizability:     171.136      -3.199     169.261       0.000       0.000      72.731
 Approx polarizability:     184.786       0.696     192.602       0.000      -0.000      91.113

 Normal termination of Gaussian 16 at Tue Sep 17 10:21:43 2024.
 Gaussian 16:  ES64L-G16RevC.02  7-Dec-2021

 ----------------------------------------------------------------------
 #p M062X/def2tzvp geom=check guess=read scf(xqc,tight) integral(grid=u
 ltrafine) scrf(SMD, solvent=1,4-Dioxane) nmr=giao
 ----------------------------------------------------------------------

 ---
 spe
 ---
 Structure from the checkpoint file:  "smiles_00059_conf_0.chk"
 Charge =  0 Multiplicity = 1

                         Standard orientation:
 ---------------------------------------------------------------------
 Center     Atomic      Atomic             Coordinates (Angstroms)
 Number     Number       Type             X           Y           Z
 ---------------------------------------------------------------------
      1         35           0       -2.178482   -0.283785   -0.000000
      2          6           0       -0.437346    0.506317   -0.000000
      3          6           0       -0.262353    1.879710    0.000000
      4          6           0        1.040199    2.419505    0.000000
      5          6           0        2.165256    1.606181    0.000000
      6          6           0        2.000570    0.210989    0.000000
      7          6           0        2.893268   -0.915654   -0.000001
      8          6           0        2.119958   -2.047518    0.000001
      9          7           0        0.782764   -1.693889   -0.000000
     10          6           0        0.681348   -0.324955   -0.000000
     11          1           0       -1.127037    2.532638    0.000000
     12          1           0        1.154572    3.498655    0.000001
     13          1           0        3.159812    2.040872    0.000000
     14          1           0        3.972773   -0.884039   -0.000001
     15          1           0        2.409740   -3.087779    0.000001
     16          1           0       -0.007744   -2.318086    0.000000
 ---------------------------------------------------------------------

 SCF Done:  E(RM062X) =  -2937.40672270     A.U. after    1 cycles

      1  Br   Isotropic =  2240.2092   Anisotropy =  1029.5683

      2  C    Isotropic =    48.4116   Anisotropy =   111.3514

      3  C    Isotropic =    40.5242   Anisotropy =   174.7994

      4  C    Isotropic =    45.1114   Anisotropy =   194.8775

      5  C    Isotropic =    44.0457   Anisotropy =   195.3872

      6  C    Isotropic =    34.9646   Anisotropy =   193.4463

      7  C    Isotropic =    66.1114   Anisotropy =   136.0080

      8  C    Isotropic =    42.0196   Anisotropy =   145.6288

      9  N    Isotropic =    99.4805   Anisotropy =   110.2416

     10  C    Isotropic =    31.6553   Anisotropy =   163.6573

     11  H    Isotropic =    23.7910   Anisotropy =    10.4032

     12  H    Isotropic =    23.9759   Anisotropy =     5.9166

     13  H    Isotropic =    23.3976   Anisotropy =     6.9076

     14  H    Isotropic =    24.5835   Anisotropy =     4.0171

     15  H    Isotropic =    23.9282   Anisotropy =     3.7558

     16  H    Isotropic =    23.1672   Anisotropy =     8.6552

 The electronic state is 1-A.
 Alpha  occ. eigenvalues -- -485.37996 -63.36461 -57.18405 -57.18170 -57.18170
 Alpha  occ. eigenvalues --  -14.79795 -10.60088 -10.58498 -10.58050 -10.54949
 Alpha  occ. eigenvalues --  -10.54867 -10.54498 -10.54148 -10.53379  -9.03093
 Alpha  occ. eigenvalues --   -6.85490  -6.84622  -6.84619  -2.88867  -2.88545
 Alpha  occ. eigenvalues --   -2.88543  -2.87731  -2.87731  -1.09867  -0.96242
 Alpha  occ. eigenvalues --   -0.91038  -0.86407  -0.83017  -0.80924  -0.70601
 Alpha  occ. eigenvalues --   -0.68488  -0.66950  -0.61440  -0.55852  -0.54498
 Alpha  occ. eigenvalues --   -0.51278  -0.51203  -0.48749  -0.48436  -0.46550
 Alpha  occ. eigenvalues --   -0.42820  -0.42617  -0.39977  -0.38451  -0.35679
 Alpha  occ. eigenvalues --   -0.33052  -0.28403  -0.26420
 Alpha virt. eigenvalues --    0.00236   0.03709   0.04119   0.07620   0.08661
 Alpha virt. eigenvalues --    0.10098   0.11232   0.12025   0.13264   0.13485
 Alpha virt. eigenvalues --    0.15320   0.17926   0.19035   0.19977   0.20514

 Mulliken charges:
               1
     1  Br  -0.132197
     2  C   -0.064079
     3  C   -0.156696
     4  C   -0.159581
     5  C   -0.243980
     6  C    0.100877
     7  C   -0.288405
     8  C   -0.040069
     9  N   -0.327794
    10  C    0.208077
    11  H    0.172793
    12  H    0.160065
    13  H    0.156308
    14  H    0.158131
    15  H    0.183382
    16  H    0.273169
 Sum of Mulliken charges =  -0.00000

 Dipole moment (field-independent basis, Debye):
    X=              1.0576    Y=             -1.5081    Z=              0.0000  Tot=              1.8420
 Quadrupole moment (field-independent basis, Debye-Ang):
   XX=            -66.7872   YY=            -57.5623   ZZ=            -76.0679
   XY=             -0.9141   XZ=             -0.0000   YZ=             -0.0000

 Normal termination of Gaussian 16 at Tue Sep 17 10:31:19 2024.
