 Gaussian 16, Revision C.02,

 ----------------------------------------------------------------------
 #p B3LYP/6-31G(d,p) EmpiricalDispersion=GD3BJ opt freq scf(xqc,tight)
 integral(grid=ultrafine)
 ----------------------------------------------------------------------

 ----------------------------------
 opt-freq conformers_unique/conf_aa
 ----------------------------------
 Symbolic Z-matrix:
 Charge =  0 Multiplicity = 1

 SCF Done:  E(RB3LYP) =  -3248.97065220     A.U. after   15 cycles
 SCF Done:  E(RB3LYP) =  -3248.97217314     A.U. after   12 cycles
 SCF Done:  E(RB3LYP) =  -3248.97234419     A.U. after   11 cycles
 SCF Done:  E(RB3LYP) =  -3248.97247233     A.U. after   11 cycles
 SCF Done:  E(RB3LYP) =  -3248.97250879     A.U. after   11 cycles
 SCF Done:  E(RB3LYP) =  -3248.97252313     A.U. after   11 cycles
 SCF Done:  E(RB3LYP) =  -3248.97252581     A.U. after   10 cycles
 SCF Done:  E(RB3LYP) =  -3248.97252616     A.U. after    9 cycles
 Optimization completed.
    -- Stationary point found.
 Normal termination of Gaussian 16 at Tue Sep 17 09:54:41 2024.

 ----------------------------------------------------------------------
 #P Geom=AllCheck Guess=TCheck SCRF=Check GenChk RB3LYP/6-31G(d,p) Freq
 ----------------------------------------------------------------------

 Structure from the checkpoint file:  "smiles_00028_conf_0.chk"
 ----------------------------------
 opt-freq conformers_unique/conf_aa
 ----------------------------------
 Charge =  0 Multiplicity = 1

 SCF Done:  E(RB3LYP) =  -3248.97252616     A.U. after    1 cycles

                      1                      2                      3
                      A                      A                      A
 Frequencies --     31.2721                41.2774                95.1596
 Red. masses --      5.1025                11.4077                 9.2647
 Frc consts  --      0.0029                 0.0115                 0.0494
 IR Inten    --      1.7536                 0.0217                 0.5020

                      4                      5                      6
                      A                      A                      A
 Frequencies --    125.1567               201.9041               226.7305
 Red. masses --      8.8691                18.6811                 7.2580
 Frc consts  --      0.0819                 0.4487                 0.2198
 IR Inten    --      0.1842                 0.0538                 0.3034

                      7                      8                      9
                      A                      A                      A
 Frequencies --    236.8071               264.1924               331.3691
 Red. masses --      8.0793                 7.1511                11.3437
 Frc consts  --      0.2669                 0.2941                 0.7339
 IR Inten    --      0.8812                 1.2929                 2.7262

                     10                     11                     12
                      A                      A                      A
 Frequencies --    361.3396               389.1299               399.7906
 Red. masses --      6.3394                 5.9925                 9.4883
 Frc consts  --      0.4877                 0.5346                 0.8935
 IR Inten    --      2.5868                 2.3601                18.2482

                     13                     14                     15
                      A                      A                      A
 Frequencies --    425.4430               469.3107               522.1750
 Red. masses --      3.8481                 3.3693                 6.8270
 Frc consts  --      0.4104                 0.4372                 1.0968
 IR Inten    --      3.8302                 2.5687                 2.9052

                     16                     17                     18
                      A                      A                      A
 Frequencies --    535.2892               587.3640               610.2270
 Red. masses --      3.2964                 6.0149                 7.0417
 Frc consts  --      0.5565                 1.2226                 1.5449
 IR Inten    --      1.1676                 5.2996                 4.9071

                     19                     20                     21
                      A                      A                      A
 Frequencies --    622.3884               648.6741               690.8849
 Red. masses --      4.4528                 8.4481                 4.9552
 Frc consts  --      1.0163                 2.0944                 1.3936
 IR Inten    --      0.9009                 4.3776                 0.1818

                     22                     23                     24
                      A                      A                      A
 Frequencies --    749.5894               772.5388               780.4073
 Red. masses --      8.2579                 6.5895                 4.1760
 Frc consts  --      2.7338                 2.3171                 1.4985
 IR Inten    --      9.0628                16.7840                 7.3588

                     25                     26                     27
                      A                      A                      A
 Frequencies --    831.7788               843.0453               865.3155
 Red. masses --      1.3766                 1.3877                 1.5614
 Frc consts  --      0.5611                 0.5811                 0.6888
 IR Inten    --      2.2151                69.3199                 6.0547

                     28                     29                     30
                      A                      A                      A
 Frequencies --    955.2488               980.7264               995.8497
 Red. masses --      1.3809                 1.3517                 2.6883
 Frc consts  --      0.7424                 0.7660                 1.5708
 IR Inten    --      2.0583                 4.8654                26.6443

                     31                     32                     33
                      A                      A                      A
 Frequencies --    997.1568              1020.9259              1055.7501
 Red. masses --      1.3509                 6.1127                 5.9944
 Frc consts  --      0.7914                 3.7538                 3.9366
 IR Inten    --      0.4065                48.8505                 4.7841

                     34                     35                     36
                      A                      A                      A
 Frequencies --   1121.6420              1131.9784              1171.6355
 Red. masses --      2.4783                 1.4963                 1.3674
 Frc consts  --      1.8370                 1.1297                 1.1059
 IR Inten    --     28.3714                66.2858                 9.9525

                     37                     38                     39
                      A                      A                      A
 Frequencies --   1178.6556              1250.5741              1282.9933
 Red. masses --      1.6200                 1.7492                 6.4660
 Frc consts  --      1.3260                 1.6118                 6.2710
 IR Inten    --     34.6224                 7.6555                 5.8440

                     40                     41                     42
                      A                      A                      A
 Frequencies --   1310.1554              1324.6496              1333.8504
 Red. masses --      2.1025                 2.1641                 4.8331
 Frc consts  --      2.1264                 2.2373                 5.0663
 IR Inten    --     12.7373                61.7790                32.5187

                     43                     44                     45
                      A                      A                      A
 Frequencies --   1369.8065              1414.8536              1473.5071
 Red. masses --      4.0003                 3.3910                 4.9586
 Frc consts  --      4.4225                 3.9995                 6.3433
 IR Inten    --     31.9916                40.3243                31.0451

                     46                     47                     48
                      A                      A                      A
 Frequencies --   1504.6233              1548.5867              1604.8581
 Red. masses --      2.3659                 3.5782                 6.2278
 Frc consts  --      3.1558                 5.0558                 9.4505
 IR Inten    --    166.1217                56.5926                 8.8583

                     49                     50                     51
                      A                      A                      A
 Frequencies --   1627.8268              1642.3509              1675.7285
 Red. masses --      6.2031                 8.9667                 7.1311
 Frc consts  --      9.6844                14.2500                11.7982
 IR Inten    --     31.3833                55.1081               147.4037

                     52                     53                     54
                      A                      A                      A
 Frequencies --   3184.8684              3218.8596              3224.6170
 Red. masses --      1.0918                 1.0921                 1.0897
 Frc consts  --      6.5250                 6.6667                 6.6759
 IR Inten    --     11.6395                 1.6694                 2.0349

                     55                     56                     57
                      A                      A                      A
 Frequencies --   3238.9048              3243.2259              3272.0533
 Red. masses --      1.0937                 1.0933                 1.0921
 Frc consts  --      6.7601                 6.7754                 6.8891
 IR Inten    --      3.5721                 0.3708                 0.4184

 - Thermochemistry -
 -------------------
 Temperature   298.150 Kelvin.  Pressure   1.00000 Atm.
 Atom     1 has atomic number  9 and mass  18.99840

 Molecular mass:   268.96517 amu.
 Principal axes and moments of inertia in atomic units:
                           1         2         3
     Eigenvalues --   995.00650********************
           X            0.99999   0.00444  -0.00006
           Y           -0.00444   0.99997   0.00628
           Z            0.00009  -0.00628   0.99998
 This molecule is an asymmetric top.
 Rotational symmetry number  1.
 Warning -- assumption of classical behavior for rotation
           may cause significant error
 Rotational temperatures (Kelvin)      0.08705     0.00746     0.00688
 Rotational constants (GHZ):           1.81380     0.15539     0.14346
 Zero-point vibrational energy     376913.5 (Joules/Mol)
                                   90.08450 (Kcal/Mol)
 Warning -- explicit consideration of  18 degrees of freedom as
           vibrations may cause significant error
 Vibrational temperatures:     44.99    59.39   136.91   180.07   290.49
          (Kelvin)            326.21   340.71   380.11   476.77   519.89
                              559.87   575.21   612.12   675.23   751.29
                              770.16   845.09   877.98   895.48   933.30
                              994.03  1078.49  1111.51  1122.83  1196.74
                             1212.95  1245.00  1374.39  1411.05  1432.81
                             1434.69  1468.88  1518.99  1613.79  1628.66
                             1685.72  1695.82  1799.30  1845.94  1885.02
                             1905.88  1919.11  1970.85  2035.66  2120.05
                             2164.82  2228.07  2309.03  2342.08  2362.98
                             2411.00  4582.32  4631.22  4639.50  4660.06
                             4666.28  4707.75

 Zero-point correction=                           0.143559 (Hartree/Particle)
 Thermal correction to Energy=                    0.155487
 Thermal correction to Enthalpy=                  0.156432
 Thermal correction to Gibbs Free Energy=         0.103042
 Sum of electronic and zero-point Energies=          -3248.828967
 Sum of electronic and thermal Energies=             -3248.817039
 Sum of electronic and thermal Enthalpies=           -3248.816094
 Sum of electronic and thermal Free Energies=        -3248.869484

                     E (Thermal)             CV                S
                      KCal/Mol        Cal/Mol-Kelvin    Cal/Mol-Kelvin
 Total                   97.570             45.469            112.368
 Electronic               0.000              0.000              0.000
 Translational            0.889              2.981             42.667
 Rotational               0.889              2.981             33.341
 Vibrational             95.792             39.508             36.360
 Vibration     1          0.594              1.983              5.747
 Vibration     2          0.594              1.981              5.197
 Vibration     3          0.603              1.953              3.551
 Vibration     4          0.610              1.928              3.019
 Vibration     5          0.639              1.837              2.116
 Vibration     6          0.650              1.800              1.905
 Vibration     7          0.656              1.784              1.827
 Vibration     8          0.671              1.739              1.634
 Vibration     9          0.714              1.613              1.253
 Vibration    10          0.736              1.552              1.116
 Vibration    11          0.757              1.493              1.003
 Vibration    12          0.766              1.471              0.963
 Vibration    13          0.787              1.415              0.874
 Vibration    14          0.826              1.318              0.739
 Vibration    15          0.877              1.201              0.605
 Vibration    16          0.890              1.172              0.576
 Vibration    17          0.945              1.059              0.472
 Vibration    18          0.969              1.010              0.432

 Optimization completed.
    -- Stationary point found.
 Normal termination of Gaussian 16 at Tue Sep 17 09:56:52 2024.

 ----------------------------------------------------------------------
 #p M062X/def2tzvp geom=check guess=read scf(xqc,tight) integral(grid=u
 ltrafine) scrf(SMD, solvent=1,4-Dioxane) polar prop=efg volume
 ----------------------------------------------------------------------

 ---
 spe
 ---
 Structure from the checkpoint file:  "smiles_00028_conf_0.chk"
 Charge =  0 Multiplicity = 1

 SCF Done:  E(RM062X) =  -3251.41931692     A.U. after   12 cycles

  Exact polarizability:     296.498       2.578     169.824      -0.160       2.822      90.890
 Approx polarizability:     281.098       0.907     209.444      -0.135       3.769     115.673

 Normal termination of Gaussian 16 at Tue Sep 17 11:00:49 2024.
 Gaussian 16:  ES64L-G16RevC.02  7-Dec-2021

 ----------------------------------------------------------------------
 #p M062X/def2tzvp geom=check guess=read scf(xqc,tight) integral(grid=u
 ltrafine) scrf(SMD, solvent=1,4-Dioxane) nmr=giao
 ----------------------------------------------------------------------

 ---
 spe
 ---
 Structure from the checkpoint file:  "smiles_00028_conf_0.chk"
 Charge =  0 Multiplicity = 1

                         Standard orientation:
 ---------------------------------------------------------------------
 Center     Atomic      Atomic             Coordinates (Angstroms)
 Number     Number       Type             X           Y           Z
 ---------------------------------------------------------------------
      1          9           0       -5.884492   -0.536000    0.030670
      2          6           0       -4.546687   -0.396693    0.023476
      3          6           0       -3.740689   -1.526066    0.119673
      4          6           0       -2.362401   -1.358531    0.111857
      5          6           0       -1.755004   -0.092041    0.016566
      6          6           0       -0.273754    0.002803    0.015954
      7          6           0        0.431181    1.199761    0.230450
      8          6           0        1.821782    1.182179    0.228812
      9          6           0        2.469765   -0.028537    0.013773
     10         35           0        4.369645   -0.130944   -0.008033
     11          6           0        1.706414   -1.179430   -0.183362
     12          7           0        0.376944   -1.161181   -0.181920
     13          6           0       -2.626498    1.001527   -0.083950
     14          9           0       -2.138858    2.258756   -0.205793
     15          6           0       -4.009308    0.878037   -0.081459
     16          1           0       -4.194197   -2.506795    0.199181
     17          1           0       -1.705551   -2.216833    0.176560
     18          1           0       -0.095006    2.126383    0.403790
     19          1           0        2.389517    2.090557    0.394484
     20          1           0        2.190365   -2.138507   -0.347785
     21          1           0       -4.639964    1.753660   -0.166265
 ---------------------------------------------------------------------

 SCF Done:  E(RM062X) =  -3251.41931692     A.U. after    1 cycles

      1  F    Isotropic =   285.5713   Anisotropy =   123.4044

      2  C    Isotropic =    -3.0064   Anisotropy =   124.1330

      3  C    Isotropic =    53.5515   Anisotropy =   171.7097

      4  C    Isotropic =    29.8241   Anisotropy =   223.0145

      5  C    Isotropic =    43.9914   Anisotropy =   171.6561

      6  C    Isotropic =    10.0769   Anisotropy =   203.8610

      7  C    Isotropic =    39.9447   Anisotropy =   194.1491

      8  C    Isotropic =    20.9987   Anisotropy =   206.5736

      9  C    Isotropic =    28.3810   Anisotropy =   139.7478

     10  Br   Isotropic =  2135.1063   Anisotropy =  1194.2028

     11  C    Isotropic =    10.5654   Anisotropy =   174.4051

     12  N    Isotropic =  -136.6369   Anisotropy =   611.0697

     13  C    Isotropic =    -0.1106   Anisotropy =   114.1605

     14  F    Isotropic =   284.3115   Anisotropy =   148.6257

     15  C    Isotropic =    63.2434   Anisotropy =   143.5049

     16  H    Isotropic =    24.0646   Anisotropy =     5.7589

     17  H    Isotropic =    22.0508   Anisotropy =     9.3298

     18  H    Isotropic =    22.7679   Anisotropy =    12.7709

     19  H    Isotropic =    23.1920   Anisotropy =    10.9134

     20  H    Isotropic =    22.2703   Anisotropy =    11.6289

     21  H    Isotropic =    24.2733   Anisotropy =     6.0759

 The electronic state is 1-A.
 Alpha  occ. eigenvalues -- -485.38549 -63.37024 -57.18972 -57.18732 -57.18726
 Alpha  occ. eigenvalues --  -25.27366 -25.26937 -14.76586 -10.65075 -10.64595
 Alpha  occ. eigenvalues --  -10.61278 -10.60692 -10.59523 -10.57650 -10.57268
 Alpha  occ. eigenvalues --  -10.56405 -10.56354 -10.56281 -10.55699  -9.03669
 Alpha  occ. eigenvalues --   -6.86088  -6.85194  -6.85174  -2.89465  -2.89141
 Alpha  occ. eigenvalues --   -2.89117  -2.88285  -2.88284  -1.38770  -1.38455
 Alpha  occ. eigenvalues --   -1.07468  -0.98759  -0.94489  -0.90698  -0.87721
 Alpha  occ. eigenvalues --   -0.86696  -0.82681  -0.74902  -0.73862  -0.72111
 Alpha  occ. eigenvalues --   -0.69938  -0.66041  -0.62365  -0.61692  -0.58946
 Alpha  occ. eigenvalues --   -0.58736  -0.57790  -0.56788  -0.55542  -0.54708
 Alpha  occ. eigenvalues --   -0.52378  -0.51343  -0.50305  -0.49141  -0.47454
 Alpha  occ. eigenvalues --   -0.46678  -0.44694  -0.43915  -0.42777  -0.40456
 Alpha  occ. eigenvalues --   -0.36624  -0.35580  -0.34116  -0.33971  -0.32315
 Alpha  occ. eigenvalues --   -0.28610
 Alpha virt. eigenvalues --   -0.03384  -0.01024   0.01101   0.03116   0.04585
 Alpha virt. eigenvalues --    0.09050   0.09878   0.10875   0.11235   0.12043
 Alpha virt. eigenvalues --    0.12846   0.13511   0.14493   0.15287   0.15957

 Mulliken charges:
               1
     1  F   -0.205766
     2  C    0.319593
     3  C   -0.242975
     4  C   -0.167749
     5  C   -0.023347
     6  C    0.213675
     7  C   -0.207861
     8  C   -0.130466
     9  C    0.033689
    10  Br  -0.090961
    11  C   -0.096632
    12  N   -0.278898
    13  C    0.293544
    14  F   -0.217933
    15  C   -0.297212
    16  H    0.177461
    17  H    0.190424
    18  H    0.180982
    19  H    0.189411
    20  H    0.174911
    21  H    0.186110
 Sum of Mulliken charges =   0.00000

 Dipole moment (field-independent basis, Debye):
    X=              0.1566    Y=              0.6377    Z=              0.5047  Tot=              0.8282
 Quadrupole moment (field-independent basis, Debye-Ang):
   XX=           -103.0421   YY=            -90.1721   ZZ=            -99.9244
   XY=              0.8566   XZ=             -0.0472   YZ=              0.6219

 Normal termination of Gaussian 16 at Tue Sep 17 11:24:03 2024.
