 Gaussian 16, Revision C.02,

 ----------------------------------------------------------------------
 #p B3LYP/gen pseudo=read EmpiricalDispersion=GD3BJ opt freq scf(xqc,ti
 ght) integral(grid=ultrafine)
 ----------------------------------------------------------------------

 ----------------------------------
 opt-freq conformers_unique/conf_aa
 ----------------------------------
 Symbolic Z-matrix:
 Charge =  0 Multiplicity = 1

 SCF Done:  E(RB3LYP) =  -917.127329299     A.U. after   13 cycles
 SCF Done:  E(RB3LYP) =  -917.128790238     A.U. after   12 cycles
 SCF Done:  E(RB3LYP) =  -917.129024424     A.U. after   10 cycles
 SCF Done:  E(RB3LYP) =  -917.129038959     A.U. after    8 cycles
 SCF Done:  E(RB3LYP) =  -917.129039921     A.U. after    8 cycles
 SCF Done:  E(RB3LYP) =  -917.129040368     A.U. after    8 cycles
 SCF Done:  E(RB3LYP) =  -917.129040753     A.U. after    7 cycles
 SCF Done:  E(RB3LYP) =  -917.129041167     A.U. after    7 cycles
 SCF Done:  E(RB3LYP) =  -917.129041473     A.U. after    7 cycles
 SCF Done:  E(RB3LYP) =  -917.129041631     A.U. after    7 cycles
 Optimization completed.
    -- Stationary point found.
 Normal termination of Gaussian 16 at Tue Sep 17 09:51:22 2024.

 ------------------------------------------------------------------
 #P Geom=AllCheck Guess=TCheck SCRF=Check GenChk RB3LYP/ChkBas Freq
 ------------------------------------------------------------------

 Structure from the checkpoint file:  "smiles_00015_conf_0.chk"
 ----------------------------------
 opt-freq conformers_unique/conf_aa
 ----------------------------------
 Charge =  0 Multiplicity = 1

 SCF Done:  E(RB3LYP) =  -917.129041631     A.U. after    1 cycles

                      1                      2                      3
                      A                      A                      A
 Frequencies --     12.7631                15.1727                78.1653
 Red. masses --     19.4417                18.8845                13.2284
 Frc consts  --      0.0019                 0.0026                 0.0476
 IR Inten    --      0.0114                 0.0289                 0.7820

                      4                      5                      6
                      A                      A                      A
 Frequencies --     99.3561               105.8253               145.2322
 Red. masses --     18.8458                20.2459                 7.5530
 Frc consts  --      0.1096                 0.1336                 0.0939
 IR Inten    --      0.0741                 0.7715                 0.0057

                      7                      8                      9
                      A                      A                      A
 Frequencies --    167.6631               213.1519               259.5313
 Red. masses --      5.1102                21.1588                11.9176
 Frc consts  --      0.0846                 0.5664                 0.4730
 IR Inten    --      0.2572                 0.2745                 1.0788

                     10                     11                     12
                      A                      A                      A
 Frequencies --    287.0321               311.6142               341.3670
 Red. masses --     12.9862                 5.6948                 8.2481
 Frc consts  --      0.6304                 0.3258                 0.5663
 IR Inten    --      1.2335                 0.0014                 1.1227

                     13                     14                     15
                      A                      A                      A
 Frequencies --    370.6600               408.6653               448.6281
 Red. masses --      8.1696                10.7777                 8.6453
 Frc consts  --      0.6613                 1.0605                 1.0252
 IR Inten    --      3.6772                 5.2629                 3.1523

                     16                     17                     18
                      A                      A                      A
 Frequencies --    497.0894               499.6269               566.5940
 Red. masses --     12.1001                 9.0478                15.4203
 Frc consts  --      1.7616                 1.3307                 2.9167
 IR Inten    --      0.0985                 4.8675                 0.0010

                     19                     20                     21
                      A                      A                      A
 Frequencies --    586.1257               603.9432               671.6536
 Red. masses --      8.2521                 8.9674                 7.6804
 Frc consts  --      1.6703                 1.9271                 2.0414
 IR Inten    --      1.2084                 0.6770                 1.8396

                     22                     23                     24
                      A                      A                      A
 Frequencies --    680.4511               692.4056               711.9775
 Red. masses --     13.1404                12.1661                 2.6394
 Frc consts  --      3.5847                 3.4366                 0.7883
 IR Inten    --     37.8217                56.3189                14.5237

                     25                     26                     27
                      A                      A                      A
 Frequencies --    779.1863               859.3381               902.3132
 Red. masses --     13.2177                11.9197                 1.5156
 Frc consts  --      4.7281                 5.1861                 0.7270
 IR Inten    --     29.3773                16.9468                36.1399

                     28                     29                     30
                      A                      A                      A
 Frequencies --    932.1806               936.7247              1016.7163
 Red. masses --      1.3610                 1.3813                 6.4380
 Frc consts  --      0.6968                 0.7141                 3.9210
 IR Inten    --      3.9474                 0.0165                 1.5705

                     31                     32                     33
                      A                      A                      A
 Frequencies --   1113.9178              1126.2436              1134.5466
 Red. masses --     11.9126                 1.8515                 1.8254
 Frc consts  --      8.7089                 1.3837                 1.3844
 IR Inten    --     21.4632                22.8691                 2.1396

                     34                     35                     36
                      A                      A                      A
 Frequencies --   1199.0054              1201.1978              1221.5514
 Red. masses --     12.9659                12.6680                 8.7287
 Frc consts  --     10.9823                10.7693                 7.6740
 IR Inten    --      0.1066               506.1467                97.4615

                     37                     38                     39
                      A                      A                      A
 Frequencies --   1229.4424              1295.4423              1300.6253
 Red. masses --      5.7509                 3.6601                 1.3771
 Frc consts  --      5.1216                 3.6190                 1.3725
 IR Inten    --    242.5415               585.2283                18.8391

                     40                     41                     42
                      A                      A                      A
 Frequencies --   1361.9546              1366.7210              1482.2680
 Red. masses --      5.0857                 5.3447                 4.1782
 Frc consts  --      5.5581                 5.8821                 5.4087
 IR Inten    --      3.0979               368.9615                 2.8605

                     43                     44                     45
                      A                      A                      A
 Frequencies --   1490.0444              1636.7387              1665.7096
 Red. masses --      3.8651                 6.7658                 6.1735
 Frc consts  --      5.0560                10.6789                10.0921
 IR Inten    --      4.7028                11.7867                 7.5150

                     46                     47                     48
                      A                      A                      A
 Frequencies --   3237.8195              3237.9872              3242.2431
 Red. masses --      1.0918                 1.0925                 1.0917
 Frc consts  --      6.7438                 6.7490                 6.7615
 IR Inten    --      0.7735                 1.3611                 0.9218

 - Thermochemistry -
 -------------------
 Temperature   298.150 Kelvin.  Pressure   1.00000 Atm.
 Atom     1 has atomic number  9 and mass  18.99840

 Molecular mass:   339.91429 amu.
 Principal axes and moments of inertia in atomic units:
                           1         2         3
     Eigenvalues --  4732.043137295.58543**********
           X            1.00000   0.00002   0.00000
           Y           -0.00002   1.00000   0.00038
           Z           -0.00000  -0.00038   1.00000
 This molecule is an asymmetric top.
 Rotational symmetry number  1.
 Warning -- assumption of classical behavior for rotation
           may cause significant error
 Rotational temperatures (Kelvin)      0.01830     0.01187     0.00761
 Rotational constants (GHZ):           0.38139     0.24737     0.15847
 Zero-point vibrational energy     261650.9 (Joules/Mol)
                                   62.53606 (Kcal/Mol)
 Warning -- explicit consideration of  20 degrees of freedom as
           vibrations may cause significant error
 Vibrational temperatures:     18.36    21.83   112.46   142.95   152.26
          (Kelvin)            208.96   241.23   306.68   373.41   412.98
                              448.34   491.15   533.30   587.98   645.48
                              715.20   718.85   815.20   843.30   868.94
                              966.36   979.02   996.22  1024.38  1121.08
                             1236.40  1298.23  1341.20  1347.74  1462.83
                             1602.68  1620.41  1632.36  1725.10  1728.26
                             1757.54  1768.89  1863.85  1871.31  1959.55
                             1966.41  2132.65  2143.84  2354.90  2396.58
                             4658.50  4658.74  4664.86

 Zero-point correction=                           0.099658 (Hartree/Particle)
 Thermal correction to Energy=                    0.112891
 Thermal correction to Enthalpy=                  0.113835
 Thermal correction to Gibbs Free Energy=         0.054806
 Sum of electronic and zero-point Energies=           -917.029384
 Sum of electronic and thermal Energies=              -917.016151
 Sum of electronic and thermal Enthalpies=            -917.015206
 Sum of electronic and thermal Free Energies=         -917.074235

                     E (Thermal)             CV                S
                      KCal/Mol        Cal/Mol-Kelvin    Cal/Mol-Kelvin
 Total                   70.840             46.894            124.237
 Electronic               0.000              0.000              0.000
 Translational            0.889              2.981             43.365
 Rotational               0.889              2.981             34.330
 Vibrational             69.063             40.932             46.542
 Vibration     1          0.593              1.987              7.526
 Vibration     2          0.593              1.986              7.183
 Vibration     3          0.599              1.964              3.936
 Vibration     4          0.604              1.950              3.467
 Vibration     5          0.605              1.945              3.344
 Vibration     6          0.617              1.908              2.734
 Vibration     7          0.624              1.882              2.462
 Vibration     8          0.644              1.821              2.017
 Vibration     9          0.668              1.747              1.665
 Vibration    10          0.684              1.698              1.491
 Vibration    11          0.700              1.652              1.354
 Vibration    12          0.721              1.593              1.206
 Vibration    13          0.743              1.532              1.077
 Vibration    14          0.773              1.451              0.931
 Vibration    15          0.808              1.364              0.800
 Vibration    16          0.853              1.256              0.665
 Vibration    17          0.855              1.251              0.659
 Vibration    18          0.923              1.104              0.511
 Vibration    19          0.943              1.061              0.474
 Vibration    20          0.962              1.023              0.443

                           ! Non-Optimized Parameters !
 Normal termination of Gaussian 16 at Tue Sep 17 09:52:30 2024.

 ----------------------------------------------------------------------
 #p M062X/def2tzvp geom=check guess=read scf(xqc,tight) integral(grid=u
 ltrafine) scrf(SMD, solvent=1,4-Dioxane) polar prop=efg volume
 ----------------------------------------------------------------------

 ---
 spe
 ---
 Structure from the checkpoint file:  "smiles_00015_conf_0.chk"
 Charge =  0 Multiplicity = 1

 SCF Done:  E(RM062X) =  -1203.43601081     A.U. after   21 cycles

  Exact polarizability:     191.594      -0.002     146.075      -0.001       0.889      87.826
 Approx polarizability:     200.000      -0.002     164.227       0.000       1.483     111.400

 1\1\GINC-HPC-52-04\SP\RM062X\def2TZVP\C8H3F6I1\MANTIND\17-Sep-2024\0\\
 #p M062X/def2tzvp geom=check guess=read scf(xqc,tight) integral(grid=u
 ltrafine) scrf(SMD, solvent=1,4-Dioxane) polar prop=efg volume\\spe\\0
 ,1\F,0,3.2860152488,2.3990041635,-0.5969921923\C,0,2.079421491,2.50704
 96692,-0.0035570364\F,0,2.2937134649,2.9188562708,1.2646692599\F,0,1.3
 961704125,3.48717308,-0.6306220478\C,0,1.3288111903,1.2007300946,-0.03
 29680564\C,0,-0.0675356773,1.2128180862,-0.0331169034\C,0,-0.753235114
 9,0.0009588755,0.002210328\I,0,-2.8868280069,0.0025744742,0.0047379078

 Normal termination of Gaussian 16 at Tue Sep 17 10:55:26 2024.
 Gaussian 16:  ES64L-G16RevC.02  7-Dec-2021

 ----------------------------------------------------------------------
 #p M062X/def2tzvp geom=check guess=read scf(xqc,tight) integral(grid=u
 ltrafine) scrf(SMD, solvent=1,4-Dioxane) nmr=giao
 ----------------------------------------------------------------------

 ---
 spe
 ---
 Structure from the checkpoint file:  "smiles_00015_conf_0.chk"
 Charge =  0 Multiplicity = 1

                         Standard orientation:
 ---------------------------------------------------------------------
 Center     Atomic      Atomic             Coordinates (Angstroms)
 Number     Number       Type             X           Y           Z
 ---------------------------------------------------------------------
      1          9           0       -3.145449   -2.400901   -0.594205
      2          6           0       -1.938081   -2.508087   -0.002189
      3          9           0       -2.150596   -2.919922    1.266327
      4          9           0       -1.254918   -3.487810   -0.629976
      5          6           0       -1.188380   -1.201268   -0.032606
      6          6           0        0.207974   -1.212423   -0.034408
      7          6           0        0.892904   -0.000103   -0.000001
      8         53           0        3.026499   -0.000292   -0.000001
      9          6           0        0.208162    1.212268    0.034418
     10          6           0       -1.188245    1.201312    0.032609
     11          6           0       -1.937403    2.508441    0.002188
     12          9           0       -3.146791    2.400672    0.589915
     13          9           0       -2.145349    2.922889   -1.266235
     14          9           0       -1.255898    3.486641    0.634176
     15          6           0       -1.893559    0.000094   -0.000012
     16          1           0        0.741132   -2.154135   -0.067369
     17          1           0        0.741450    2.153914    0.067429
     18          1           0       -2.976269    0.000179   -0.000048
 ---------------------------------------------------------------------

 SCF Done:  E(RM062X) =  -1203.43601081     A.U. after    1 cycles

      1  F    Isotropic =   250.1170   Anisotropy =   137.4498

      2  C    Isotropic =    51.0849   Anisotropy =    12.5859

      3  F    Isotropic =   225.6031   Anisotropy =   147.9279

      4  F    Isotropic =   250.0193   Anisotropy =   137.1679

      5  C    Isotropic =    29.0480   Anisotropy =   186.4143

      6  C    Isotropic =    24.6005   Anisotropy =   195.7200

      7  C    Isotropic =    24.1453   Anisotropy =   157.9528

      8  I    Isotropic =   431.6722   Anisotropy =    76.5402

      9  C    Isotropic =    24.5858   Anisotropy =   195.7396

     10  C    Isotropic =    29.0414   Anisotropy =   186.4235

     11  C    Isotropic =    51.0822   Anisotropy =    12.5881

     12  F    Isotropic =   250.2258   Anisotropy =   137.3266

     13  F    Isotropic =   225.5951   Anisotropy =   147.9319

     14  F    Isotropic =   249.8888   Anisotropy =   137.3322

     15  C    Isotropic =    39.8522   Anisotropy =   220.7891

     16  H    Isotropic =    22.9841   Anisotropy =    15.5841

     17  H    Isotropic =    22.9841   Anisotropy =    15.5816

     18  H    Isotropic =    23.1175   Anisotropy =    12.1392

 The electronic state is 1-A.
 Alpha  occ. eigenvalues --  -25.29256 -25.29254 -25.29242 -25.29240 -25.28946
 Alpha  occ. eigenvalues --  -25.28946 -10.81434 -10.81433 -10.62493 -10.59958
 Alpha  occ. eigenvalues --  -10.59957 -10.59146 -10.59144 -10.59012  -7.12050
 Alpha  occ. eigenvalues --   -5.11434  -5.10332  -5.10323  -2.08259  -2.07807
 Alpha  occ. eigenvalues --   -2.07804  -2.06885  -2.06883  -1.47347  -1.47344
 Alpha  occ. eigenvalues --   -1.38549  -1.38547  -1.38225  -1.38225  -1.01790
 Alpha  occ. eigenvalues --   -0.92964  -0.91075  -0.83315  -0.82359  -0.80012
 Alpha  occ. eigenvalues --   -0.75036  -0.74071  -0.70410  -0.70198  -0.70193
 Alpha  occ. eigenvalues --   -0.70144  -0.66803  -0.63779  -0.61121  -0.59321
 Alpha  occ. eigenvalues --   -0.58662  -0.58389  -0.58181  -0.56717  -0.54737
 Alpha  occ. eigenvalues --   -0.54568  -0.54545  -0.53601  -0.52718  -0.52691
 Alpha  occ. eigenvalues --   -0.51324  -0.50222  -0.49868  -0.48612  -0.45093
 Alpha  occ. eigenvalues --   -0.41553  -0.38061  -0.35554  -0.33706  -0.31452
 Alpha virt. eigenvalues --   -0.03312  -0.02528  -0.02021   0.08829   0.11018
 Alpha virt. eigenvalues --    0.11100   0.11891   0.13116   0.14270   0.15131
 Alpha virt. eigenvalues --    0.16156   0.16528   0.17429   0.18652   0.18818

 Mulliken charges:
               1
     1  F   -0.179932
     2  C    0.509784
     3  F   -0.176401
     4  F   -0.180813
     5  C    0.027191
     6  C   -0.229375
     7  C    0.102555
     8  I   -0.052038
     9  C   -0.229567
    10  C    0.027135
    11  C    0.509772
    12  F   -0.179908
    13  F   -0.176402
    14  F   -0.180823
    15  C   -0.224197
    16  H    0.211899
    17  H    0.211876
    18  H    0.209243
 Sum of Mulliken charges =  -0.00000

 Dipole moment (field-independent basis, Debye):
    X=              1.5950    Y=             -0.0006    Z=              0.0000  Tot=              1.5950
 Quadrupole moment (field-independent basis, Debye-Ang):
   XX=           -103.6525   YY=           -111.1846   ZZ=           -106.1559
   XY=             -0.0025   XZ=              0.0002   YZ=              0.4461

 1\1\GINC-HPC-52-04\SP\RM062X\def2TZVP\C8H3F6I1\MANTIND\17-Sep-2024\0\\
 #p M062X/def2tzvp geom=check guess=read scf(xqc,tight) integral(grid=u
 ltrafine) scrf(SMD, solvent=1,4-Dioxane) nmr=giao\\spe\\0,1\F,0,3.2860
 152488,2.3990041635,-0.5969921923\C,0,2.079421491,2.5070496692,-0.0035
 570364\F,0,2.2937134649,2.9188562708,1.2646692599\F,0,1.3961704125,3.4
 8717308,-0.6306220478\C,0,1.3288111903,1.2007300946,-0.0329680564\C,0,
 -0.0675356773,1.2128180862,-0.0331169034\C,0,-0.7532351149,0.000958875
 5,0.002210328\I,0,-2.8868280069,0.0025744742,0.0047379078\C,0,-0.06926

 Normal termination of Gaussian 16 at Tue Sep 17 11:13:41 2024.
