 Gaussian 16, Revision C.02,

 ----------------------------------------------------------------------
 #p B3LYP/6-31G(d,p) EmpiricalDispersion=GD3BJ opt freq scf(xqc,tight)
 integral(grid=ultrafine)
 ----------------------------------------------------------------------

 ----------------------------------
 opt-freq conformers_unique/conf_aa
 ----------------------------------
 Symbolic Z-matrix:
 Charge =  0 Multiplicity = 1

 SCF Done:  E(RB3LYP) =  -3232.66580817     A.U. after   15 cycles
 SCF Done:  E(RB3LYP) =  -3232.66726495     A.U. after   14 cycles
 SCF Done:  E(RB3LYP) =  -3232.66669385     A.U. after   15 cycles
 SCF Done:  E(RB3LYP) =  -3232.66760683     A.U. after   12 cycles
 SCF Done:  E(RB3LYP) =  -3232.66763864     A.U. after    9 cycles
 SCF Done:  E(RB3LYP) =  -3232.66763959     A.U. after    8 cycles
 SCF Done:  E(RB3LYP) =  -3232.66763965     A.U. after    7 cycles
 SCF Done:  E(RB3LYP) =  -3232.66763972     A.U. after    7 cycles
 SCF Done:  E(RB3LYP) =  -3232.66763988     A.U. after    8 cycles
 SCF Done:  E(RB3LYP) =  -3232.66763999     A.U. after    8 cycles
 SCF Done:  E(RB3LYP) =  -3232.66764013     A.U. after    8 cycles
 SCF Done:  E(RB3LYP) =  -3232.66764023     A.U. after    8 cycles
 SCF Done:  E(RB3LYP) =  -3232.66764027     A.U. after    7 cycles
 Optimization completed.
    -- Stationary point found.
 Normal termination of Gaussian 16 at Tue Sep 17 09:56:38 2024.

 ----------------------------------------------------------------------
 #P Geom=AllCheck Guess=TCheck SCRF=Check GenChk RB3LYP/6-31G(d,p) Freq
 ----------------------------------------------------------------------

 Structure from the checkpoint file:  "smiles_00065_conf_0.chk"
 ----------------------------------
 opt-freq conformers_unique/conf_aa
 ----------------------------------
 Charge =  0 Multiplicity = 1

 SCF Done:  E(RB3LYP) =  -3232.66764027     A.U. after    1 cycles

                      1                      2                      3
                      A                      A                      A
 Frequencies --     15.3019                68.1885               120.2881
 Red. masses --     14.6993                10.8826                14.6534
 Frc consts  --      0.0020                 0.0298                 0.1249
 IR Inten    --      0.5645                 0.8390                 4.3283

                      4                      5                      6
                      A                      A                      A
 Frequencies --    129.3057               143.3479               209.0411
 Red. masses --      6.0095                14.0717                12.0943
 Frc consts  --      0.0592                 0.1704                 0.3114
 IR Inten    --      1.9036                 0.4262                 0.3451

                      7                      8                      9
                      A                      A                      A
 Frequencies --    228.1996               269.6983               379.6651
 Red. masses --     23.9148                 9.2378                 7.5223
 Frc consts  --      0.7337                 0.3959                 0.6389
 IR Inten    --      0.0246                 0.2663                 3.1367

                     10                     11                     12
                      A                      A                      A
 Frequencies --    384.4868               399.6492               420.8429
 Red. masses --     11.0202                 4.5741                 9.3028
 Frc consts  --      0.9598                 0.4304                 0.9707
 IR Inten    --      3.9216                 0.9987                 9.8205

                     13                     14                     15
                      A                      A                      A
 Frequencies --    487.6284               511.2982               549.8160
 Red. masses --      5.3749                 8.4786                 7.6402
 Frc consts  --      0.7530                 1.3059                 1.3608
 IR Inten    --      3.8264                 8.2385                 5.7459

                     16                     17                     18
                      A                      A                      A
 Frequencies --    559.7006               616.6438               673.6171
 Red. masses --     14.2067                 7.6519                 5.7875
 Frc consts  --      2.6221                 1.7143                 1.5473
 IR Inten    --      1.6241                 3.4862                 2.6019

                     19                     20                     21
                      A                      A                      A
 Frequencies --    685.5433               739.4652               762.2186
 Red. masses --      8.6786                11.0653                 3.9477
 Frc consts  --      2.4031                 3.5649                 1.3513
 IR Inten    --      0.3519                14.4529                 1.7595

                     22                     23                     24
                      A                      A                      A
 Frequencies --    859.5203               890.7057               943.8581
 Red. masses --      1.4139                 7.3655                 1.4720
 Frc consts  --      0.6154                 3.4429                 0.7726
 IR Inten    --     26.1275                 9.3024                12.8428

                     25                     26                     27
                      A                      A                      A
 Frequencies --    992.5251              1057.2571              1105.0885
 Red. masses --      1.3533                 7.4206                 2.6649
 Frc consts  --      0.7855                 4.8871                 1.9175
 IR Inten    --      0.1437                51.1153               117.9607

                     28                     29                     30
                      A                      A                      A
 Frequencies --   1166.7678              1197.5904              1219.0303
 Red. masses --      1.6972                11.6283                 6.4065
 Frc consts  --      1.3613                 9.8262                 5.6092
 IR Inten    --     18.4684               253.9733               151.9628

                     31                     32                     33
                      A                      A                      A
 Frequencies --   1221.7029              1286.3802              1344.0468
 Red. masses --      2.5511                 1.4153                 9.4025
 Frc consts  --      2.2434                 1.3798                10.0075
 IR Inten    --     55.3757                48.3603               131.2238

                     34                     35                     36
                      A                      A                      A
 Frequencies --   1355.4078              1440.5614              1513.9993
 Red. masses --      4.4352                 4.3219                 2.9002
 Frc consts  --      4.8007                 5.2843                 3.9167
 IR Inten    --    176.1608                24.3168                17.7135

                     37                     38                     39
                      A                      A                      A
 Frequencies --   1623.5818              1657.9994              2360.5481
 Red. masses --      7.0232                 6.0105                12.6777
 Frc consts  --     10.9078                 9.7348                41.6212
 IR Inten    --      8.4783                42.2392                 8.4502

                     40                     41                     42
                      A                      A                      A
 Frequencies --   3218.8058              3233.5295              3236.0032
 Red. masses --      1.0891                 1.0952                 1.0925
 Frc consts  --      6.6485                 6.7468                 6.7402
 IR Inten    --      0.1121                 0.1077                 0.6661

 - Thermochemistry -
 -------------------
 Temperature   298.150 Kelvin.  Pressure   1.00000 Atm.
 Atom     1 has atomic number  7 and mass  14.00307

 Molecular mass:   248.94009 amu.
 Principal axes and moments of inertia in atomic units:
                           1         2         3
     Eigenvalues --  1390.908046386.558247457.62491
           X            0.99994  -0.01061  -0.00003
           Y            0.01061   0.99994   0.00051
           Z            0.00002  -0.00051   1.00000
 This molecule is an asymmetric top.
 Rotational symmetry number  1.
 Warning -- assumption of classical behavior for rotation
           may cause significant error
 Rotational temperatures (Kelvin)      0.06227     0.01356     0.01161
 Rotational constants (GHZ):           1.29753     0.28258     0.24200
 Zero-point vibrational energy     246902.4 (Joules/Mol)
                                   59.01109 (Kcal/Mol)
 Warning -- explicit consideration of  17 degrees of freedom as
           vibrations may cause significant error
 Vibrational temperatures:     22.02    98.11   173.07   186.04   206.25
          (Kelvin)            300.76   328.33   388.04   546.25   553.19
                              575.01   605.50   701.59   735.64   791.06
                              805.28   887.21   969.18   986.34  1063.93
                             1096.66  1236.66  1281.53  1358.00  1428.02
                             1521.16  1589.98  1678.72  1723.07  1753.91
                             1757.76  1850.81  1933.78  1950.13  2072.65
                             2178.31  2335.97  2385.49  3396.30  4631.14
                             4652.33  4655.89

 Zero-point correction=                           0.094040 (Hartree/Particle)
 Thermal correction to Energy=                    0.105163
 Thermal correction to Enthalpy=                  0.106107
 Thermal correction to Gibbs Free Energy=         0.054057
 Sum of electronic and zero-point Energies=          -3232.573600
 Sum of electronic and thermal Energies=             -3232.562478
 Sum of electronic and thermal Enthalpies=           -3232.561533
 Sum of electronic and thermal Free Energies=        -3232.613584

                     E (Thermal)             CV                S
                      KCal/Mol        Cal/Mol-Kelvin    Cal/Mol-Kelvin
 Total                   65.991             39.890            109.549
 Electronic               0.000              0.000              0.000
 Translational            0.889              2.981             42.437
 Rotational               0.889              2.981             32.560
 Vibrational             64.213             33.929             34.552
 Vibration     1          0.593              1.986              7.166
 Vibration     2          0.598              1.969              4.205
 Vibration     3          0.609              1.932              3.096
 Vibration     4          0.612              1.924              2.956
 Vibration     5          0.616              1.910              2.759
 Vibration     6          0.642              1.827              2.052
 Vibration     7          0.651              1.798              1.893
 Vibration     8          0.674              1.729              1.598
 Vibration     9          0.750              1.514              1.040
 Vibration    10          0.753              1.503              1.021
 Vibration    11          0.766              1.471              0.964
 Vibration    12          0.783              1.425              0.889
 Vibration    13          0.844              1.277              0.690
 Vibration    14          0.866              1.225              0.630
 Vibration    15          0.905              1.140              0.545
 Vibration    16          0.915              1.119              0.524
 Vibration    17          0.976              0.997              0.422

                           ! Non-Optimized Parameters !
 Normal termination of Gaussian 16 at Tue Sep 17 09:57:42 2024.

 ----------------------------------------------------------------------
 #p M062X/def2tzvp geom=check guess=read scf(xqc,tight) integral(grid=u
 ltrafine) scrf(SMD, solvent=1,4-Dioxane) polar prop=efg volume
 ----------------------------------------------------------------------

 ---
 spe
 ---
 Structure from the checkpoint file:  "smiles_00065_conf_0.chk"
 Charge =  0 Multiplicity = 1

 SCF Done:  E(RM062X) =  -3235.16134589     A.U. after   12 cycles

  Exact polarizability:     176.799     -12.114     149.423      -0.606       0.157      74.717
 Approx polarizability:     184.461     -14.819     173.927      -0.899       0.215      93.461

 Normal termination of Gaussian 16 at Tue Sep 17 10:33:14 2024.
 Gaussian 16:  ES64L-G16RevC.02  7-Dec-2021

 ----------------------------------------------------------------------
 #p M062X/def2tzvp geom=check guess=read scf(xqc,tight) integral(grid=u
 ltrafine) scrf(SMD, solvent=1,4-Dioxane) nmr=giao
 ----------------------------------------------------------------------

 ---
 spe
 ---
 Structure from the checkpoint file:  "smiles_00065_conf_0.chk"
 Charge =  0 Multiplicity = 1

                         Standard orientation:
 ---------------------------------------------------------------------
 Center     Atomic      Atomic             Coordinates (Angstroms)
 Number     Number       Type             X           Y           Z
 ---------------------------------------------------------------------
      1          7           0       -1.973997    3.044155   -0.002489
      2          6           0       -1.357838    2.058660   -0.006894
      3          6           0       -0.557531    0.872797   -0.012397
      4          6           0        0.840683    0.987116   -0.026354
      5          6           0        1.634149   -0.153901   -0.036665
      6          6           0        3.133996   -0.032099    0.003854
      7          9           0        3.552457    1.160258   -0.466507
      8          9           0        3.724609   -0.998268   -0.731474
      9          9           0        3.601670   -0.153593    1.265478
     10          6           0        1.044348   -1.420801   -0.033658
     11          6           0       -0.340645   -1.548009   -0.019323
     12          6           0       -1.139507   -0.407061   -0.007586
     13         35           0       -3.022652   -0.590373    0.010041
     14          1           0        1.293036    1.970964   -0.036113
     15          1           0        1.668873   -2.306718   -0.050990
     16          1           0       -0.805670   -2.526079   -0.020221
 ---------------------------------------------------------------------

 SCF Done:  E(RM062X) =  -3235.16134589     A.U. after    1 cycles

      1  N    Isotropic =   -96.2759   Anisotropy =   457.7549

      2  C    Isotropic =    53.2436   Anisotropy =   376.1053

      3  C    Isotropic =    47.2494   Anisotropy =   153.3297

      4  C    Isotropic =    28.6060   Anisotropy =   217.2890

      5  C    Isotropic =    31.3176   Anisotropy =   191.5748

      6  C    Isotropic =    51.0799   Anisotropy =    12.3203

      7  F    Isotropic =   253.6765   Anisotropy =   132.8524

      8  F    Isotropic =   246.7561   Anisotropy =   141.7955

      9  F    Isotropic =   225.8531   Anisotropy =   149.1010

     10  C    Isotropic =    31.1852   Anisotropy =   222.7903

     11  C    Isotropic =    28.6980   Anisotropy =   192.4492

     12  C    Isotropic =    13.2204   Anisotropy =   175.2957

     13  Br   Isotropic =  2006.4779   Anisotropy =  1209.6542

     14  H    Isotropic =    22.9626   Anisotropy =    11.1632

     15  H    Isotropic =    23.2101   Anisotropy =     9.3203

     16  H    Isotropic =    23.2678   Anisotropy =    10.7351

 The electronic state is 1-A.
 Alpha  occ. eigenvalues -- -485.40024 -63.38490 -57.20445 -57.20199 -57.20183
 Alpha  occ. eigenvalues --  -25.29504 -25.29394 -25.29140 -14.77537 -10.81655
 Alpha  occ. eigenvalues --  -10.64533 -10.62143 -10.60107 -10.60065 -10.59955
 Alpha  occ. eigenvalues --  -10.59388 -10.58868  -9.05135  -6.87574  -6.86661
 Alpha  occ. eigenvalues --   -6.86609  -2.90953  -2.90628  -2.90576  -2.89724
 Alpha  occ. eigenvalues --   -2.89724  -1.47533  -1.38756  -1.38404  -1.04179
 Alpha  occ. eigenvalues --   -1.01679  -0.94860  -0.90736  -0.87974  -0.81635
 Alpha  occ. eigenvalues --   -0.76865  -0.73738  -0.70639  -0.70368  -0.69726
 Alpha  occ. eigenvalues --   -0.61251  -0.59769  -0.59202  -0.57954  -0.57689
 Alpha  occ. eigenvalues --   -0.55154  -0.54846  -0.53495  -0.52857  -0.51168
 Alpha  occ. eigenvalues --   -0.49624  -0.47614  -0.45802  -0.45311  -0.44094
 Alpha  occ. eigenvalues --   -0.42070  -0.40973  -0.37226  -0.34826  -0.33027
 Alpha virt. eigenvalues --   -0.05185  -0.02905   0.01556   0.05630   0.08175
 Alpha virt. eigenvalues --    0.08374   0.09547   0.10729   0.12585   0.13630
 Alpha virt. eigenvalues --    0.15617   0.16820   0.17480   0.18003   0.18190

 Mulliken charges:
               1
     1  N   -0.015550
     2  C   -0.212374
     3  C    0.248620
     4  C   -0.208379
     5  C    0.000442
     6  C    0.512006
     7  F   -0.178997
     8  F   -0.181603
     9  F   -0.176600
    10  C   -0.159400
    11  C   -0.133533
    12  C   -0.056796
    13  Br  -0.035932
    14  H    0.210713
    15  H    0.194486
    16  H    0.192897
 Sum of Mulliken charges =  -0.00000

 Dipole moment (field-independent basis, Debye):
    X=              1.0870    Y=             -4.2657    Z=             -0.1022  Tot=              4.4032
 Quadrupole moment (field-independent basis, Debye-Ang):
   XX=            -96.1917   YY=            -89.3383   ZZ=            -86.6814
   XY=              8.8701   XZ=             -0.2448   YZ=              0.0395

 Normal termination of Gaussian 16 at Tue Sep 17 10:46:13 2024.
