 Gaussian 16, Revision C.02,

 ----------------------------------------------------------------------
 #p B3LYP/6-31G(d,p) EmpiricalDispersion=GD3BJ opt freq scf(xqc,tight)
 integral(grid=ultrafine)
 ----------------------------------------------------------------------

 ----------------------------------
 opt-freq conformers_unique/conf_ab
 ----------------------------------
 Symbolic Z-matrix:
 Charge =  0 Multiplicity = 1

 SCF Done:  E(RB3LYP) =  -2960.67421010     A.U. after   14 cycles
 SCF Done:  E(RB3LYP) =  -2960.67564882     A.U. after   11 cycles
 SCF Done:  E(RB3LYP) =  -2960.67572341     A.U. after   10 cycles
 SCF Done:  E(RB3LYP) =  -2960.67583155     A.U. after   11 cycles
 SCF Done:  E(RB3LYP) =  -2960.62910314     A.U. after   13 cycles
 SCF Done:  E(RB3LYP) =  -2960.67567763     A.U. after   13 cycles
 SCF Done:  E(RB3LYP) =  -2960.67608150     A.U. after   10 cycles
 SCF Done:  E(RB3LYP) =  -2960.67567398     A.U. after   14 cycles
 SCF Done:  E(RB3LYP) =  -2960.67439978     A.U. after   12 cycles
 SCF Done:  E(RB3LYP) =  -2960.67423509     A.U. after   12 cycles
 SCF Done:  E(RB3LYP) =  -2960.67648080     A.U. after    8 cycles
 SCF Done:  E(RB3LYP) =  -2960.67643241     A.U. after   11 cycles
 SCF Done:  E(RB3LYP) =  -2960.67606298     A.U. after   12 cycles
 SCF Done:  E(RB3LYP) =  -2960.67666087     A.U. after   10 cycles
 SCF Done:  E(RB3LYP) =  -2960.67666387     A.U. after    9 cycles
 SCF Done:  E(RB3LYP) =  -2960.67666459     A.U. after    7 cycles
 SCF Done:  E(RB3LYP) =  -2960.67666468     A.U. after    7 cycles
 Optimization completed.
    -- Stationary point found.
 Normal termination of Gaussian 16 at Tue Sep 17 09:56:12 2024.

 ----------------------------------------------------------------------
 #P Geom=AllCheck Guess=TCheck SCRF=Check GenChk RB3LYP/6-31G(d,p) Freq
 ----------------------------------------------------------------------

 Structure from the checkpoint file:  "smiles_00004_conf_1.chk"
 ----------------------------------
 opt-freq conformers_unique/conf_ab
 ----------------------------------
 Charge =  0 Multiplicity = 1

 SCF Done:  E(RB3LYP) =  -2960.67666468     A.U. after    1 cycles

                      1                      2                      3
                      A                      A                      A
 Frequencies --     51.3617                69.8095               158.1702
 Red. masses --      3.2693                 4.4921                 4.7031
 Frc consts  --      0.0051                 0.0129                 0.0693
 IR Inten    --      0.0018                 0.0011                 0.0095

                      4                      5                      6
                      A                      A                      A
 Frequencies --    197.5039               229.0381               244.8011
 Red. masses --      2.5440                 5.9406                 1.2047
 Frc consts  --      0.0585                 0.1836                 0.0425
 IR Inten    --      0.0122                 0.7141                 0.0492

                      7                      8                      9
                      A                      A                      A
 Frequencies --    271.9497               292.3171               335.3603
 Red. masses --      1.2553                 2.2158                 1.0458
 Frc consts  --      0.0547                 0.1116                 0.0693
 IR Inten    --      0.0418                 0.3420                 0.0002

                     10                     11                     12
                      A                      A                      A
 Frequencies --    343.1895               355.3412               409.7490
 Red. masses --      2.6764                 2.6669                 3.3940
 Frc consts  --      0.1857                 0.1984                 0.3357
 IR Inten    --      0.1347                 0.0004                 3.6814

                     13                     14                     15
                      A                      A                      A
 Frequencies --    414.3121               424.2347               468.3701
 Red. masses --      3.0204                 2.9578                 2.9116
 Frc consts  --      0.3055                 0.3136                 0.3763
 IR Inten    --      0.3895                 0.0108                 0.2845

                     16                     17                     18
                      A                      A                      A
 Frequencies --    556.4428               573.9480               650.3901
 Red. masses --      2.6721                 3.2767                 7.1236
 Frc consts  --      0.4875                 0.6360                 1.7754
 IR Inten    --     13.5699                 3.8832                 0.2074

                     19                     20                     21
                      A                      A                      A
 Frequencies --    739.0037               746.4428               846.8865
 Red. masses --      5.5213                 3.4851                 1.2825
 Frc consts  --      1.7766                 1.1441                 0.5419
 IR Inten    --     14.8387                 1.7216                 4.5790

                     22                     23                     24
                      A                      A                      A
 Frequencies --    849.3778               852.0492               937.0695
 Red. masses --      1.5180                 2.5605                 1.7577
 Frc consts  --      0.6452                 1.0952                 0.9094
 IR Inten    --     24.8921                 0.0495                 1.1901

                     25                     26                     27
                      A                      A                      A
 Frequencies --    948.8926               966.8272               975.5985
 Red. masses --      1.6823                 1.2070                 1.3344
 Frc consts  --      0.8925                 0.6647                 0.7483
 IR Inten    --      0.8111                 0.0915                 0.0331

                     28                     29                     30
                      A                      A                      A
 Frequencies --    980.0497              1026.8580              1049.8277
 Red. masses --      1.3234                 4.6775                 1.4231
 Frc consts  --      0.7489                 2.9059                 0.9241
 IR Inten    --      0.0025                42.4700                 3.2367

                     31                     32                     33
                      A                      A                      A
 Frequencies --   1056.8483              1101.8904              1139.8237
 Red. masses --      1.3971                 3.0742                 2.1347
 Frc consts  --      0.9194                 2.1992                 1.6340
 IR Inten    --      0.0000                17.1095                22.1662

                     34                     35                     36
                      A                      A                      A
 Frequencies --   1145.9919              1221.2854              1237.0029
 Red. masses --      1.4261                 1.1394                 2.7338
 Frc consts  --      1.1035                 1.0013                 2.4646
 IR Inten    --      4.8744                 0.0127                 3.3613

                     37                     38                     39
                      A                      A                      A
 Frequencies --   1239.8887              1300.8723              1338.7788
 Red. masses --      2.5276                 3.0542                 1.2954
 Frc consts  --      2.2894                 3.0452                 1.3679
 IR Inten    --      0.4893                18.9382                 0.0626

                     40                     41                     42
                      A                      A                      A
 Frequencies --   1340.8951              1411.7211              1413.2945
 Red. masses --      8.9359                 1.2929                 1.2155
 Frc consts  --      9.4662                 1.5182                 1.4304
 IR Inten    --      0.7849                 3.5257                 4.0236

                     43                     44                     45
                      A                      A                      A
 Frequencies --   1441.6104              1445.3053              1496.7662
 Red. masses --      2.5517                 1.2213                 1.0489
 Frc consts  --      3.1245                 1.5031                 1.3846
 IR Inten    --     12.6010                 3.1335                 0.0039

                     46                     47                     48
                      A                      A                      A
 Frequencies --   1500.4530              1504.0084              1517.8808
 Red. masses --      1.0447                 1.0608                 1.0928
 Frc consts  --      1.3857                 1.4138                 1.4834
 IR Inten    --      0.1254                 2.5080                10.5898

                     49                     50                     51
                      A                      A                      A
 Frequencies --   1522.8416              1533.7897              1539.0885
 Red. masses --      1.0505                 1.2792                 1.5557
 Frc consts  --      1.4353                 1.7731                 2.1713
 IR Inten    --      4.8823                 4.1555                56.1507

                     52                     53                     54
                      A                      A                      A
 Frequencies --   1623.7218              1650.5304              3041.4731
 Red. masses --      6.8106                 5.6783                 1.0348
 Frc consts  --     10.5793                 9.1142                 5.6402
 IR Inten    --      0.7796                 4.1543                23.6518

                     55                     56                     57
                      A                      A                      A
 Frequencies --   3041.7658              3048.9218              3112.7111
 Red. masses --      1.0350                 1.0363                 1.1024
 Frc consts  --      5.6422                 5.6758                 6.2931
 IR Inten    --     26.2066                22.5186                 2.9900

                     58                     59                     60
                      A                      A                      A
 Frequencies --   3113.3648              3117.5070              3120.7960
 Red. masses --      1.1025                 1.1029                 1.1016
 Frc consts  --      6.2966                 6.3156                 6.3211
 IR Inten    --      3.7863                23.5840                90.4453

                     61                     62                     63
                      A                      A                      A
 Frequencies --   3124.4372              3126.7964              3193.4836
 Red. masses --      1.1024                 1.1017                 1.0878
 Frc consts  --      6.3408                 6.3461                 6.5361
 IR Inten    --     18.4990                41.1024                11.5023

                     64                     65                     66
                      A                      A                      A
 Frequencies --   3211.9413              3219.5025              3228.0464
 Red. masses --      1.0882                 1.0941                 1.0935
 Frc consts  --      6.6148                 6.6816                 6.7135
 IR Inten    --      1.8763                 5.8119                 6.2571

 - Thermochemistry -
 -------------------
 Temperature   298.150 Kelvin.  Pressure   1.00000 Atm.
 Atom     1 has atomic number  6 and mass  12.00000

 Molecular mass:   212.02006 amu.
 Principal axes and moments of inertia in atomic units:
                           1         2         3
     Eigenvalues --   708.654185850.667696160.31364
           X            1.00000   0.00033   0.00000
           Y           -0.00033   1.00000  -0.00000
           Z           -0.00000   0.00000   1.00000
 This molecule is an asymmetric top.
 Rotational symmetry number  1.
 Warning -- assumption of classical behavior for rotation
           may cause significant error
 Rotational temperatures (Kelvin)      0.12222     0.01480     0.01406
 Rotational constants (GHZ):           2.54672     0.30847     0.29296
 Zero-point vibrational energy     534672.2 (Joules/Mol)
                                  127.78972 (Kcal/Mol)
 Warning -- explicit consideration of  17 degrees of freedom as
           vibrations may cause significant error
 Vibrational temperatures:     73.90   100.44   227.57   284.16   329.53
          (Kelvin)            352.21   391.27   420.58   482.51   493.77
                              511.26   589.54   596.10   610.38   673.88
                              800.60   825.78   935.77  1063.26  1073.96
                             1218.48  1222.07  1225.91  1348.23  1365.24
                             1391.05  1403.67  1410.07  1477.42  1510.47
                             1520.57  1585.37  1639.95  1648.83  1757.16
                             1779.77  1783.92  1871.67  1926.20  1929.25
                             2031.15  2033.42  2074.16  2079.47  2153.51
                             2158.82  2163.93  2183.89  2191.03  2206.78
                             2214.41  2336.17  2374.75  4376.00  4376.42
                             4386.72  4478.50  4479.44  4485.40  4490.13
                             4495.37  4498.76  4594.71  4621.27  4632.15
                             4644.44

 Zero-point correction=                           0.203646 (Hartree/Particle)
 Thermal correction to Energy=                    0.214824
 Thermal correction to Enthalpy=                  0.215768
 Thermal correction to Gibbs Free Energy=         0.166038
 Sum of electronic and zero-point Energies=          -2960.473019
 Sum of electronic and thermal Energies=             -2960.461840
 Sum of electronic and thermal Enthalpies=           -2960.460896
 Sum of electronic and thermal Free Energies=        -2960.510627

                     E (Thermal)             CV                S
                      KCal/Mol        Cal/Mol-Kelvin    Cal/Mol-Kelvin
 Total                  134.804             43.172            104.666
 Electronic               0.000              0.000              0.000
 Translational            0.889              2.981             41.958
 Rotational               0.889              2.981             31.613
 Vibrational            133.027             37.210             31.095
 Vibration     1          0.596              1.977              4.764
 Vibration     2          0.598              1.969              4.159
 Vibration     3          0.621              1.893              2.572
 Vibration     4          0.637              1.843              2.156
 Vibration     5          0.652              1.797              1.886
 Vibration     6          0.660              1.771              1.768
 Vibration     7          0.675              1.725              1.584
 Vibration     8          0.688              1.688              1.461
 Vibration     9          0.716              1.605              1.234
 Vibration    10          0.722              1.589              1.197
 Vibration    11          0.731              1.564              1.142
 Vibration    12          0.774              1.449              0.928
 Vibration    13          0.778              1.439              0.912
 Vibration    14          0.786              1.418              0.878
 Vibration    15          0.826              1.320              0.742
 Vibration    16          0.912              1.126              0.531
 Vibration    17          0.930              1.088              0.497

 Optimization completed.
    -- Stationary point found.
 Normal termination of Gaussian 16 at Tue Sep 17 09:58:16 2024.

 ----------------------------------------------------------------------
 #p M062X/def2tzvp geom=check guess=read scf(xqc,tight) integral(grid=u
 ltrafine) scrf(SMD, solvent=1,4-Dioxane) polar prop=efg volume
 ----------------------------------------------------------------------

 ---
 spe
 ---
 Structure from the checkpoint file:  "smiles_00004_conf_1.chk"
 Charge =  0 Multiplicity = 1

 SCF Done:  E(RM062X) =  -2963.06271973     A.U. after   11 cycles

  Exact polarizability:     216.763       0.458     150.285      -0.001      -0.000     108.529
 Approx polarizability:     208.106       0.642     176.396      -0.001       0.000     126.204

 Normal termination of Gaussian 16 at Tue Sep 17 10:46:14 2024.
 Gaussian 16:  ES64L-G16RevC.02  7-Dec-2021

 ----------------------------------------------------------------------
 #p M062X/def2tzvp geom=check guess=read scf(xqc,tight) integral(grid=u
 ltrafine) scrf(SMD, solvent=1,4-Dioxane) nmr=giao
 ----------------------------------------------------------------------

 ---
 spe
 ---
 Structure from the checkpoint file:  "smiles_00004_conf_1.chk"
 Charge =  0 Multiplicity = 1

                         Standard orientation:
 ---------------------------------------------------------------------
 Center     Atomic      Atomic             Coordinates (Angstroms)
 Number     Number       Type             X           Y           Z
 ---------------------------------------------------------------------
      1          6           0       -3.470971   -0.739600   -1.260978
      2          6           0       -2.976521    0.001860   -0.000007
      3          6           0       -3.587287    1.412443    0.000570
      4          6           0       -3.471308   -0.740702    1.260137
      5          6           0       -1.442542    0.033284    0.000137
      6          6           0       -0.720652   -1.171055    0.000101
      7          6           0        0.670611   -1.195031    0.000076
      8          6           0        1.367527    0.010909    0.000044
      9         35           0        3.279300   -0.005329   -0.000024
     10          6           0        0.689470    1.223243    0.000061
     11          6           0       -0.706850    1.223775    0.000103
     12          1           0       -4.565541   -0.774440   -1.276499
     13          1           0       -3.103513   -1.768875   -1.296067
     14          1           0       -3.131558   -0.231540   -2.168852
     15          1           0       -3.293285    1.981997   -0.886586
     16          1           0       -4.678961    1.339835    0.000457
     17          1           0       -3.293404    1.981196    0.888284
     18          1           0       -3.103684   -1.769941    1.294562
     19          1           0       -3.132349   -0.233351    2.168583
     20          1           0       -4.565875   -0.775760    1.275201
     21          1           0       -1.250406   -2.118216    0.000116
     22          1           0        1.208653   -2.135806    0.000093
     23          1           0        1.240578    2.156452    0.000019
     24          1           0       -1.215022    2.180198    0.000078
 ---------------------------------------------------------------------

 SCF Done:  E(RM062X) =  -2963.06271973     A.U. after    1 cycles

      1  C    Isotropic =   151.3921   Anisotropy =    46.4440

      2  C    Isotropic =   147.2906   Anisotropy =    14.3391

      3  C    Isotropic =   155.5912   Anisotropy =    36.0767

      4  C    Isotropic =   151.4058   Anisotropy =    46.4270

      5  C    Isotropic =     8.1856   Anisotropy =   242.3273

      6  C    Isotropic =    33.5870   Anisotropy =   209.0517

      7  C    Isotropic =    31.9349   Anisotropy =   182.3715

      8  C    Isotropic =    28.4024   Anisotropy =   134.2006

      9  Br   Isotropic =  2107.7743   Anisotropy =  1274.3912

     10  C    Isotropic =    32.0211   Anisotropy =   182.2563

     11  C    Isotropic =    37.6888   Anisotropy =   201.9348

     12  H    Isotropic =    30.7550   Anisotropy =     9.2875

     13  H    Isotropic =    30.3365   Anisotropy =     7.9765

     14  H    Isotropic =    30.8460   Anisotropy =     8.2639

     15  H    Isotropic =    30.3703   Anisotropy =     8.6438

     16  H    Isotropic =    30.7911   Anisotropy =     8.3501

     17  H    Isotropic =    30.3714   Anisotropy =     8.6441

     18  H    Isotropic =    30.3352   Anisotropy =     7.9779

     19  H    Isotropic =    30.8457   Anisotropy =     8.2658

     20  H    Isotropic =    30.7548   Anisotropy =     9.2860

     21  H    Isotropic =    23.5486   Anisotropy =    11.6796

     22  H    Isotropic =    23.6966   Anisotropy =    10.4587

     23  H    Isotropic =    23.7438   Anisotropy =    10.4857

     24  H    Isotropic =    23.7542   Anisotropy =    12.0006

 The electronic state is 1-A.
 Alpha  occ. eigenvalues -- -485.37212 -63.35693 -57.17636 -57.17402 -57.17397
 Alpha  occ. eigenvalues --  -10.59835 -10.55637 -10.55427 -10.55290 -10.55239
 Alpha  occ. eigenvalues --  -10.54783 -10.54717 -10.52287 -10.52286 -10.52253
 Alpha  occ. eigenvalues --   -9.02337  -6.84736  -6.83872  -6.83856  -2.88113
 Alpha  occ. eigenvalues --   -2.87799  -2.87778  -2.86973  -2.86973  -0.98023
 Alpha  occ. eigenvalues --   -0.92858  -0.88095  -0.85197  -0.80653  -0.77720
 Alpha  occ. eigenvalues --   -0.77540  -0.69620  -0.68820  -0.63134  -0.57324
 Alpha  occ. eigenvalues --   -0.54018  -0.52609  -0.51206  -0.50830  -0.49737
 Alpha  occ. eigenvalues --   -0.48718  -0.46699  -0.44532  -0.44141  -0.42915
 Alpha  occ. eigenvalues --   -0.42662  -0.42156  -0.39428  -0.38185  -0.37565
 Alpha  occ. eigenvalues --   -0.36701  -0.34864  -0.31645  -0.28906
 Alpha virt. eigenvalues --    0.01072   0.01548   0.03909   0.06793   0.10101
 Alpha virt. eigenvalues --    0.10325   0.11508   0.12158   0.12200   0.13019
 Alpha virt. eigenvalues --    0.13587   0.15063   0.15369   0.16574   0.16621

 Mulliken charges:
               1
     1  C   -0.435279
     2  C   -0.056061
     3  C   -0.535440
     4  C   -0.435312
     5  C    0.124567
     6  C   -0.232803
     7  C   -0.180491
     8  C    0.038856
     9  Br  -0.123326
    10  C   -0.173531
    11  C   -0.170366
    12  H    0.156753
    13  H    0.152032
    14  H    0.163350
    15  H    0.172284
    16  H    0.164841
    17  H    0.172335
    18  H    0.152017
    19  H    0.163355
    20  H    0.156761
    21  H    0.184745
    22  H    0.178586
    23  H    0.176837
    24  H    0.185291
 Sum of Mulliken charges =  -0.00000

 Dipole moment (field-independent basis, Debye):
    X=             -2.8902    Y=             -0.0147    Z=             -0.0001  Tot=              2.8902
 Quadrupole moment (field-independent basis, Debye-Ang):
   XX=            -80.2878   YY=            -74.7889   ZZ=            -84.0429
   XY=              0.0242   XZ=              0.0001   YZ=             -0.0002

 Normal termination of Gaussian 16 at Tue Sep 17 11:03:53 2024.
