 Gaussian 16, Revision C.02,

 ----------------------------------------------------------------------
 #p B3LYP/gen pseudo=read EmpiricalDispersion=GD3BJ opt freq scf(xqc,ti
 ght) integral(grid=ultrafine)
 ----------------------------------------------------------------------

 ----------------------------------
 opt-freq conformers_unique/conf_aa
 ----------------------------------
 Symbolic Z-matrix:
 Charge =  0 Multiplicity = 1

 SCF Done:  E(RB3LYP) =  -433.828089198     A.U. after   15 cycles
 SCF Done:  E(RB3LYP) =  -433.829653487     A.U. after   12 cycles
 SCF Done:  E(RB3LYP) =  -433.829695564     A.U. after   10 cycles
 SCF Done:  E(RB3LYP) =  -433.829697575     A.U. after    8 cycles
 Optimization completed.
    -- Stationary point found.
 Normal termination of Gaussian 16 at Tue Sep 17 09:42:23 2024.

 ------------------------------------------------------------------
 #P Geom=AllCheck Guess=TCheck SCRF=Check GenChk RB3LYP/ChkBas Freq
 ------------------------------------------------------------------

 Structure from the checkpoint file:  "smiles_00032_conf_0.chk"
 ----------------------------------
 opt-freq conformers_unique/conf_aa
 ----------------------------------
 Charge =  0 Multiplicity = 1

 SCF Done:  E(RB3LYP) =  -433.829697575     A.U. after    1 cycles

                      1                      2                      3
                      A                      A                      A
 Frequencies --     69.0925                93.2657               132.2194
 Red. masses --      3.9807                 2.2307                 7.7910
 Frc consts  --      0.0112                 0.0114                 0.0802
 IR Inten    --      5.1782                 0.0277                 0.8534

                      4                      5                      6
                      A                      A                      A
 Frequencies --    177.3010               221.1912               241.2874
 Red. masses --      4.7691                 3.3984                11.3935
 Frc consts  --      0.0883                 0.0980                 0.3908
 IR Inten    --      0.5703                 3.8083                 1.6924

                      7                      8                      9
                      A                      A                      A
 Frequencies --    299.2117               446.0744               500.8610
 Red. masses --      6.7448                 3.9696                 3.2908
 Frc consts  --      0.3558                 0.4654                 0.4864
 IR Inten    --      5.1557                 3.9611                 0.0920

                     10                     11                     12
                      A                      A                      A
 Frequencies --    517.4973               554.4246               585.1202
 Red. masses --      4.6947                 7.3915                 2.6442
 Frc consts  --      0.7407                 1.3387                 0.5334
 IR Inten    --      7.9303                 4.2057                 0.0033

                     13                     14                     15
                      A                      A                      A
 Frequencies --    594.3523               667.0416               701.1727
 Red. masses --      5.6627                 6.9665                 2.3701
 Frc consts  --      1.1786                 1.8263                 0.6865
 IR Inten    --     21.8947                 4.0159                 2.7957

                     16                     17                     18
                      A                      A                      A
 Frequencies --    792.5959               798.5249               838.7808
 Red. masses --      6.6066                 1.2515                 4.9182
 Frc consts  --      2.4453                 0.4702                 2.0387
 IR Inten    --     27.3588                36.8160                10.2968

                     19                     20                     21
                      A                      A                      A
 Frequencies --    848.3253               938.5189               990.1340
 Red. masses --      1.8887                 1.3491                 1.4044
 Frc consts  --      0.8008                 0.7001                 0.8112
 IR Inten    --      1.1142                 0.0432                 0.5411

                     22                     23                     24
                      A                      A                      A
 Frequencies --   1001.9104              1014.3168              1043.6861
 Red. masses --      2.4503                 1.9674                 5.7771
 Frc consts  --      1.4492                 1.1926                 3.7077
 IR Inten    --      2.4261                 0.0437                48.3542

                     25                     26                     27
                      A                      A                      A
 Frequencies --   1081.5099              1127.2288              1163.7890
 Red. masses --      2.0513                 2.9541                 1.2200
 Frc consts  --      1.4136                 2.2116                 0.9736
 IR Inten    --      4.2727                81.3340                 0.4373

                     28                     29                     30
                      A                      A                      A
 Frequencies --   1185.9835              1227.6937              1240.1435
 Red. masses --      1.5040                 1.7799                 1.1096
 Frc consts  --      1.2464                 1.5806                 1.0054
 IR Inten    --      3.0999                 3.2797                 0.0071

                     31                     32                     33
                      A                      A                      A
 Frequencies --   1275.7356              1285.2872              1315.9313
 Red. masses --      1.6914                 2.1918                 2.1243
 Frc consts  --      1.6218                 2.1333                 2.1673
 IR Inten    --     22.4263                66.3153                14.6629

                     34                     35                     36
                      A                      A                      A
 Frequencies --   1374.2733              1457.1181              1470.9411
 Red. masses --      4.4070                 1.3886                 1.7391
 Frc consts  --      4.9038                 1.7371                 2.2171
 IR Inten    --     27.4002                 0.6505                16.0616

                     37                     38                     39
                      A                      A                      A
 Frequencies --   1494.9679              1497.7369              1617.8961
 Red. masses --      2.6165                 1.1487                 6.7430
 Frc consts  --      3.4453                 1.5182                10.3992
 IR Inten    --     32.0450                 1.6151                16.9905

                     40                     41                     42
                      A                      A                      A
 Frequencies --   1648.2195              1821.9508              3063.1596
 Red. masses --      7.4361                12.8366                 1.0604
 Frc consts  --     11.9021                25.1057                 5.8623
 IR Inten    --     48.3769               307.4719                10.1441

                     43                     44                     45
                      A                      A                      A
 Frequencies --   3081.5896              3095.3464              3123.5593
 Red. masses --      1.0615                 1.1049                 1.1034
 Frc consts  --      5.9393                 6.2372                 6.3431
 IR Inten    --      9.2030                 4.8895                 8.1344

                     46                     47                     48
                      A                      A                      A
 Frequencies --   3197.8972              3215.7364              3222.1314
 Red. masses --      1.0873                 1.0922                 1.0960
 Frc consts  --      6.5516                 6.6546                 6.7041
 IR Inten    --      3.8119                 1.4567                 9.7421

 - Thermochemistry -
 -------------------
 Temperature   298.150 Kelvin.  Pressure   1.00000 Atm.
 Atom     1 has atomic number  8 and mass  15.99491

 Molecular mass:   257.95009 amu.
 Principal axes and moments of inertia in atomic units:
                           1         2         3
     Eigenvalues --  1156.382164670.317255804.55165
           X            0.99983  -0.01825   0.00005
           Y            0.01825   0.99983   0.00011
           Z           -0.00005  -0.00010   1.00000
 This molecule is an asymmetric top.
 Rotational symmetry number  1.
 Warning -- assumption of classical behavior for rotation
           may cause significant error
 Rotational temperatures (Kelvin)      0.07490     0.01855     0.01492
 Rotational constants (GHZ):           1.56068     0.38643     0.31092
 Zero-point vibrational energy     355008.2 (Joules/Mol)
                                   84.84899 (Kcal/Mol)
 Warning -- explicit consideration of  13 degrees of freedom as
           vibrations may cause significant error
 Vibrational temperatures:     99.41   134.19   190.23   255.10   318.24
          (Kelvin)            347.16   430.50   641.80   720.63   744.56
                              797.69   841.86   855.14   959.72  1008.83
                             1140.37  1148.90  1206.82  1220.55  1350.32
                             1424.58  1441.53  1459.38  1501.63  1556.05
                             1621.83  1674.43  1706.37  1766.38  1784.29
                             1835.50  1849.24  1893.33  1977.27  2096.47
                             2116.36  2150.93  2154.91  2327.79  2371.42
                             2621.38  4407.20  4433.72  4453.51  4494.11
                             4601.06  4626.73  4635.93

 Zero-point correction=                           0.135215 (Hartree/Particle)
 Thermal correction to Energy=                    0.144438
 Thermal correction to Enthalpy=                  0.145382
 Thermal correction to Gibbs Free Energy=         0.098595
 Sum of electronic and zero-point Energies=           -433.694482
 Sum of electronic and thermal Energies=              -433.685260
 Sum of electronic and thermal Enthalpies=            -433.684316
 Sum of electronic and thermal Free Energies=         -433.731103

                     E (Thermal)             CV                S
                      KCal/Mol        Cal/Mol-Kelvin    Cal/Mol-Kelvin
 Total                   90.636             34.486             98.472
 Electronic               0.000              0.000              0.000
 Translational            0.889              2.981             42.543
 Rotational               0.889              2.981             31.817
 Vibrational             88.859             28.524             24.113
 Vibration     1          0.598              1.969              4.179
 Vibration     2          0.602              1.954              3.590
 Vibration     3          0.612              1.921              2.914
 Vibration     4          0.628              1.870              2.357
 Vibration     5          0.648              1.809              1.949
 Vibration     6          0.658              1.777              1.793
 Vibration     7          0.692              1.675              1.421
 Vibration     8          0.805              1.370              0.808
 Vibration     9          0.856              1.248              0.656
 Vibration    10          0.873              1.211              0.616
 Vibration    11          0.910              1.130              0.535
 Vibration    12          0.942              1.064              0.476
 Vibration    13          0.952              1.044              0.459

 Optimization completed.
    -- Stationary point found.
 Normal termination of Gaussian 16 at Tue Sep 17 09:43:41 2024.

 ----------------------------------------------------------------------
 #p M062X/def2tzvp geom=check guess=read scf(xqc,tight) integral(grid=u
 ltrafine) scrf(SMD, solvent=1,4-Dioxane) polar prop=efg volume
 ----------------------------------------------------------------------

 ---
 spe
 ---
 Structure from the checkpoint file:  "smiles_00032_conf_0.chk"
 Charge =  0 Multiplicity = 1

 SCF Done:  E(RM062X) =  -720.023366268     A.U. after   22 cycles

  Exact polarizability:     212.323       5.305     170.051      -0.009      -0.009      87.931
 Approx polarizability:     225.350       8.341     187.611      -0.013      -0.008     114.125

 1\1\GINC-HPC-92-07\SP\RM062X\def2TZVP\C9H7I1O1\MANTIND\17-Sep-2024\0\\
 #p M062X/def2tzvp geom=check guess=read scf(xqc,tight) integral(grid=u
 ltrafine) scrf(SMD, solvent=1,4-Dioxane) polar prop=efg volume\\spe\\0
 ,1\O,0,-4.5485062563,-0.4954854987,0.0003395375\C,0,-3.3452737262,-0.6
 663676565,-0.0003729161\C,0,-2.6191665961,-2.0201148704,-0.0008387418\
 C,0,-1.1065277101,-1.7015112796,-0.0002630934\C,0,-1.031478104,-0.1910
 962633,-0.0003040971\C,0,0.0789019694,0.6467043959,-0.0003096056\I,0,2
 .0542103148,-0.184722038,-0.0003944746\C,0,-0.0838541315,2.0327829219,

 Normal termination of Gaussian 16 at Tue Sep 17 10:29:24 2024.
 Gaussian 16:  ES64L-G16RevC.02  7-Dec-2021

 ----------------------------------------------------------------------
 #p M062X/def2tzvp geom=check guess=read scf(xqc,tight) integral(grid=u
 ltrafine) scrf(SMD, solvent=1,4-Dioxane) nmr=giao
 ----------------------------------------------------------------------

 ---
 spe
 ---
 Structure from the checkpoint file:  "smiles_00032_conf_0.chk"
 Charge =  0 Multiplicity = 1

                         Standard orientation:
 ---------------------------------------------------------------------
 Center     Atomic      Atomic             Coordinates (Angstroms)
 Number     Number       Type             X           Y           Z
 ---------------------------------------------------------------------
      1          8           0        4.357865   -0.428478   -0.000635
      2          6           0        3.158319   -0.623566    0.000078
      3          6           0        2.459631   -1.991666    0.000543
      4          6           0        0.940881   -1.703600   -0.000032
      5          6           0        0.835419   -0.195003    0.000009
      6          6           0       -0.291614    0.620259    0.000014
      7         53           0       -2.249772   -0.250793    0.000099
      8          6           0       -0.156814    2.009335   -0.000102
      9          6           0        1.117591    2.594896   -0.000260
     10          6           0        2.259235    1.798905   -0.000284
     11          6           0        2.096394    0.414154   -0.000107
     12          1           0        2.785410   -2.556494    0.879158
     13          1           0        2.786060   -2.557790   -0.876974
     14          1           0        0.434870   -2.123720    0.875698
     15          1           0        0.435723   -2.123453   -0.876396
     16          1           0       -1.039749    2.638388   -0.000087
     17          1           0        1.200554    3.677200   -0.000344
     18          1           0        3.257876    2.223416   -0.000388
 ---------------------------------------------------------------------

 SCF Done:  E(RM062X) =  -720.023366268     A.U. after    1 cycles

      1  O    Isotropic =  -364.1104   Anisotropy =  1090.1513

      2  C    Isotropic =   -50.7664   Anisotropy =   163.3449

      3  C    Isotropic =   144.6819   Anisotropy =    42.6640

      4  C    Isotropic =   153.5197   Anisotropy =    30.2776

      5  C    Isotropic =    -1.6001   Anisotropy =   216.9840

      6  C    Isotropic =    27.4423   Anisotropy =   124.6914

      7  I    Isotropic =   438.1177   Anisotropy =    63.6933

      8  C    Isotropic =    18.9987   Anisotropy =   190.8298

      9  C    Isotropic =    34.8013   Anisotropy =   208.0252

     10  C    Isotropic =    39.1397   Anisotropy =   219.6314

     11  C    Isotropic =    21.6434   Anisotropy =   192.5111

     12  H    Isotropic =    29.1413   Anisotropy =     8.1295

     13  H    Isotropic =    29.1406   Anisotropy =     8.1272

     14  H    Isotropic =    28.6695   Anisotropy =     5.7053

     15  H    Isotropic =    28.6702   Anisotropy =     5.7081

     16  H    Isotropic =    23.2406   Anisotropy =    12.9663

     17  H    Isotropic =    23.7090   Anisotropy =     5.9956

     18  H    Isotropic =    23.1673   Anisotropy =     6.1150

 The electronic state is 1-A.
 Alpha  occ. eigenvalues --  -19.62192 -10.63463 -10.60596 -10.57660 -10.57049
 Alpha  occ. eigenvalues --  -10.56285 -10.56082 -10.55842 -10.55546 -10.54834
 Alpha  occ. eigenvalues --   -7.11016  -5.10354  -5.09324  -5.09310  -2.07182
 Alpha  occ. eigenvalues --   -2.06754  -2.06747  -2.05889  -2.05888  -1.16721
 Alpha  occ. eigenvalues --   -0.99702  -0.92516  -0.87827  -0.83275  -0.78464
 Alpha  occ. eigenvalues --   -0.77345  -0.70764  -0.67975  -0.62349  -0.57518
 Alpha  occ. eigenvalues --   -0.56058  -0.55359  -0.53836  -0.50436  -0.48500
 Alpha  occ. eigenvalues --   -0.47399  -0.46953  -0.46553  -0.44613  -0.43093
 Alpha  occ. eigenvalues --   -0.41190  -0.39425  -0.36053  -0.32762  -0.32532
 Alpha  occ. eigenvalues --   -0.32041  -0.29996
 Alpha virt. eigenvalues --   -0.03693  -0.00802   0.00299   0.06805   0.07038
 Alpha virt. eigenvalues --    0.09298   0.10226   0.11457   0.12470   0.13026
 Alpha virt. eigenvalues --    0.14696   0.15799   0.16737   0.17154   0.17501

 Mulliken charges:
               1
     1  O   -0.323371
     2  C    0.197567
     3  C   -0.279144
     4  C   -0.330645
     5  C    0.013813
     6  C    0.023772
     7  I   -0.094652
     8  C   -0.167014
     9  C   -0.128952
    10  C   -0.223453
    11  C    0.070103
    12  H    0.172401
    13  H    0.172399
    14  H    0.182074
    15  H    0.182081
    16  H    0.183636
    17  H    0.171489
    18  H    0.177895
 Sum of Mulliken charges =  -0.00000

 Dipole moment (field-independent basis, Debye):
    X=             -2.2283    Y=              0.1991    Z=              0.0013  Tot=              2.2371
 Quadrupole moment (field-independent basis, Debye-Ang):
   XX=           -104.0757   YY=            -72.1389   ZZ=            -86.1339
   XY=              0.5135   XZ=              0.0065   YZ=             -0.0019

 1\1\GINC-HPC-92-07\SP\RM062X\def2TZVP\C9H7I1O1\MANTIND\17-Sep-2024\0\\
 #p M062X/def2tzvp geom=check guess=read scf(xqc,tight) integral(grid=u
 ltrafine) scrf(SMD, solvent=1,4-Dioxane) nmr=giao\\spe\\0,1\O,0,-4.548
 5062563,-0.4954854987,0.0003395375\C,0,-3.3452737262,-0.6663676565,-0.
 0003729161\C,0,-2.6191665961,-2.0201148704,-0.0008387418\C,0,-1.106527
 7101,-1.7015112796,-0.0002630934\C,0,-1.031478104,-0.1910962633,-0.000
 3040971\C,0,0.0789019694,0.6467043959,-0.0003096056\I,0,2.0542103148,-
 0.184722038,-0.0003944746\C,0,-0.0838541315,2.0327829219,-0.0001932683

 Normal termination of Gaussian 16 at Tue Sep 17 10:42:43 2024.
