 Gaussian 16, Revision C.02,

 ----------------------------------------------------------------------
 #p B3LYP/gen pseudo=read EmpiricalDispersion=GD3BJ opt freq scf(xqc,ti
 ght) integral(grid=ultrafine)
 ----------------------------------------------------------------------

 ----------------------------------
 opt-freq conformers_unique/conf_aa
 ----------------------------------
 Symbolic Z-matrix:
 Charge =  0 Multiplicity = 1

 SCF Done:  E(RB3LYP) =  -357.583279548     A.U. after   14 cycles
 SCF Done:  E(RB3LYP) =  -357.584255033     A.U. after   12 cycles
 SCF Done:  E(RB3LYP) =  -357.584297354     A.U. after   11 cycles
 SCF Done:  E(RB3LYP) =  -357.584299818     A.U. after    8 cycles
 SCF Done:  E(RB3LYP) =  -357.584300266     A.U. after    8 cycles
 Optimization completed.
    -- Stationary point found.
 Normal termination of Gaussian 16 at Tue Sep 17 09:44:44 2024.

 ------------------------------------------------------------------
 #P Geom=AllCheck Guess=TCheck SCRF=Check GenChk RB3LYP/ChkBas Freq
 ------------------------------------------------------------------

 Structure from the checkpoint file:  "smiles_00039_conf_0.chk"
 ----------------------------------
 opt-freq conformers_unique/conf_aa
 ----------------------------------
 Charge =  0 Multiplicity = 1

 SCF Done:  E(RB3LYP) =  -357.584300266     A.U. after    1 cycles

                      1                      2                      3
                      A                      A                      A
 Frequencies --     69.1706               126.1302               162.2199
 Red. masses --      3.8232                 4.7809                 5.0306
 Frc consts  --      0.0108                 0.0448                 0.0780
 IR Inten    --      1.1977                 2.9465                 0.8007

                      4                      5                      6
                      A                      A                      A
 Frequencies --    222.1464               243.6503               300.2233
 Red. masses --      9.9642                 1.2120                 3.6696
 Frc consts  --      0.2897                 0.0424                 0.1949
 IR Inten    --      0.9904                 0.2587                 1.2100

                      7                      8                      9
                      A                      A                      A
 Frequencies --    320.1374               424.9931               479.3275
 Red. masses --      3.7030                 3.0938                 4.2773
 Frc consts  --      0.2236                 0.3292                 0.5790
 IR Inten    --      3.8930                 0.0003                 0.3650

                     10                     11                     12
                      A                      A                      A
 Frequencies --    516.2293               591.3937               642.9539
 Red. masses --      2.7764                 5.8470                 7.1045
 Frc consts  --      0.4359                 1.2049                 1.7304
 IR Inten    --     10.6038                35.4838                 1.2895

                     13                     14                     15
                      A                      A                      A
 Frequencies --    705.5049               809.1513               816.8375
 Red. masses --      3.4246                 5.5111                 1.2913
 Frc consts  --      1.0043                 2.1259                 0.5076
 IR Inten    --      0.0015                 2.7436                 8.0079

                     16                     17                     18
                      A                      A                      A
 Frequencies --    837.5883               944.9035               964.6812
 Red. masses --      1.5951                 1.3027                 1.3111
 Frc consts  --      0.6593                 0.6853                 0.7189
 IR Inten    --     44.3199                 0.0663                 0.0973

                     19                     20                     21
                      A                      A                      A
 Frequencies --   1013.2924              1075.8787              1085.7904
 Red. masses --      5.1004                 5.3541                 2.5130
 Frc consts  --      3.0855                 3.6514                 1.7455
 IR Inten    --     36.5391                56.5792                13.6927

                     22                     23                     24
                      A                      A                      A
 Frequencies --   1137.6222              1179.8933              1206.1013
 Red. masses --      1.3208                 1.2745                 1.1671
 Frc consts  --      1.0071                 1.0454                 1.0003
 IR Inten    --      6.5427                 0.7443                21.1982

                     25                     26                     27
                      A                      A                      A
 Frequencies --   1214.1007              1301.4980              1330.6168
 Red. masses --      1.3640                 4.7784                 1.2693
 Frc consts  --      1.1846                 4.7689                 1.3241
 IR Inten    --     12.1330               264.8995                 1.2073

                     28                     29                     30
                      A                      A                      A
 Frequencies --   1351.8775              1446.0647              1488.0028
 Red. masses --      7.9189                 3.0186                 1.2062
 Frc consts  --      8.5269                 3.7190                 1.5736
 IR Inten    --     67.3920                 0.7115                24.6290

                     31                     32                     33
                      A                      A                      A
 Frequencies --   1504.6062              1518.6725              1536.9287
 Red. masses --      1.0460                 1.0782                 2.2172
 Frc consts  --      1.3951                 1.4652                 3.0857
 IR Inten    --      5.8464                63.0093               127.9354

                     34                     35                     36
                      A                      A                      A
 Frequencies --   1628.7368              1652.3488              3019.1010
 Red. masses --      7.0886                 5.7642                 1.0349
 Frc consts  --     11.0794                 9.2723                 5.5580
 IR Inten    --     12.7562                38.3079                53.6265

                     37                     38                     39
                      A                      A                      A
 Frequencies --   3080.8656              3155.7965              3210.4603
 Red. masses --      1.1062                 1.1000                 1.0881
 Frc consts  --      6.1863                 6.4546                 6.6077
 IR Inten    --     40.4772                24.1628                 2.2603

                     40                     41                     42
                      A                      A                      A
 Frequencies --   3214.8953              3225.4325              3232.6095
 Red. masses --      1.0891                 1.0954                 1.0932
 Frc consts  --      6.6319                 6.7145                 6.7305
 IR Inten    --      1.2993                 5.0458                 8.3427

 - Thermochemistry -
 -------------------
 Temperature   298.150 Kelvin.  Pressure   1.00000 Atm.
 Atom     1 has atomic number  6 and mass  12.00000

 Molecular mass:   233.95009 amu.
 Principal axes and moments of inertia in atomic units:
                           1         2         3
     Eigenvalues --   377.308415187.592435553.39921
           X            0.99992  -0.01279  -0.00015
           Y            0.01279   0.99992  -0.00009
           Z            0.00015   0.00009   1.00000
 This molecule is an asymmetric top.
 Rotational symmetry number  1.
 Rotational temperatures (Kelvin)      0.22956     0.01670     0.01560
 Rotational constants (GHZ):           4.78320     0.34790     0.32498
 Zero-point vibrational energy     322922.6 (Joules/Mol)
                                   77.18034 (Kcal/Mol)
 Warning -- explicit consideration of  11 degrees of freedom as
           vibrations may cause significant error
 Vibrational temperatures:     99.52   181.47   233.40   319.62   350.56
          (Kelvin)            431.95   460.61   611.47   689.65   742.74
                              850.88   925.07  1015.06  1164.19  1175.25
                             1205.10  1359.51  1387.96  1457.90  1547.95
                             1562.21  1636.78  1697.60  1735.31  1746.82
                             1872.57  1914.46  1945.05  2080.56  2140.90
                             2164.79  2185.03  2211.30  2343.39  2377.36
                             4343.81  4432.68  4540.49  4619.14  4625.52
                             4640.68  4651.00

 Zero-point correction=                           0.122995 (Hartree/Particle)
 Thermal correction to Energy=                    0.131446
 Thermal correction to Enthalpy=                  0.132390
 Thermal correction to Gibbs Free Energy=         0.087795
 Sum of electronic and zero-point Energies=           -357.461306
 Sum of electronic and thermal Energies=              -357.452854
 Sum of electronic and thermal Enthalpies=            -357.451910
 Sum of electronic and thermal Free Energies=         -357.496505

                     E (Thermal)             CV                S
                      KCal/Mol        Cal/Mol-Kelvin    Cal/Mol-Kelvin
 Total                   82.484             30.777             93.859
 Electronic               0.000              0.000              0.000
 Translational            0.889              2.981             42.252
 Rotational               0.889              2.981             30.764
 Vibrational             80.706             24.816             20.843
 Vibration     1          0.598              1.969              4.177
 Vibration     2          0.611              1.927              3.004
 Vibration     3          0.622              1.889              2.524
 Vibration     4          0.648              1.807              1.942
 Vibration     5          0.659              1.773              1.776
 Vibration     6          0.693              1.673              1.416
 Vibration     7          0.706              1.635              1.309
 Vibration     8          0.787              1.416              0.875
 Vibration     9          0.836              1.296              0.712
 Vibration    10          0.871              1.214              0.619
 Vibration    11          0.949              1.050              0.465

 Optimization completed.
    -- Stationary point found.
 Normal termination of Gaussian 16 at Tue Sep 17 09:45:27 2024.

 ----------------------------------------------------------------------
 #p M062X/def2tzvp geom=check guess=read scf(xqc,tight) integral(grid=u
 ltrafine) scrf(SMD, solvent=1,4-Dioxane) polar prop=efg volume
 ----------------------------------------------------------------------

 ---
 spe
 ---
 Structure from the checkpoint file:  "smiles_00039_conf_0.chk"
 Charge =  0 Multiplicity = 1

 SCF Done:  E(RM062X) =  -643.784961789     A.U. after   21 cycles

  Exact polarizability:     202.889      -1.224     124.368       0.018       0.004      78.865
 Approx polarizability:     196.456       2.017     151.132       0.015       0.005      98.627

 1\1\GINC-HPC-82-12\SP\RM062X\def2TZVP\C7H7I1O1\MANTIND\17-Sep-2024\0\\
 #p M062X/def2tzvp geom=check guess=read scf(xqc,tight) integral(grid=u
 ltrafine) scrf(SMD, solvent=1,4-Dioxane) polar prop=efg volume\\spe\\0
 ,1\C,0,5.0529949328,0.7133118652,-0.0002806392\O,0,4.2178145888,-0.433
 2527006,-0.0002343116\C,0,2.869399586,-0.2408880975,-0.0000158433\C,0,
 2.245407103,1.0111336106,0.0001969351\C,0,0.8496138877,1.0932104547,0.
 0004142712\C,0,0.0874222134,-0.0687752281,0.0004186135\I,0,-2.05029556
 64,0.0626330989,0.0007543205\C,0,0.7016955933,-1.3231617524,0.00020717

 Normal termination of Gaussian 16 at Tue Sep 17 10:17:30 2024.
 Gaussian 16:  ES64L-G16RevC.02  7-Dec-2021

 ----------------------------------------------------------------------
 #p M062X/def2tzvp geom=check guess=read scf(xqc,tight) integral(grid=u
 ltrafine) scrf(SMD, solvent=1,4-Dioxane) nmr=giao
 ----------------------------------------------------------------------

 ---
 spe
 ---
 Structure from the checkpoint file:  "smiles_00039_conf_0.chk"
 Charge =  0 Multiplicity = 1

                         Standard orientation:
 ---------------------------------------------------------------------
 Center     Atomic      Atomic             Coordinates (Angstroms)
 Number     Number       Type             X           Y           Z
 ---------------------------------------------------------------------
      1          6           0        4.785318   -0.656419    0.000677
      2          8           0        3.938556    0.481620    0.000631
      3          6           0        2.592161    0.275594    0.000412
      4          6           0        1.980894   -0.982690    0.000200
      5          6           0        0.586005   -1.078913   -0.000018
      6          6           0       -0.187928    0.075285   -0.000022
      7         53           0       -2.324204   -0.077789   -0.000358
      8          6           0        0.413596    1.335835    0.000189
      9          6           0        1.799546    1.432191    0.000406
     10          1           0        5.806257   -0.273033    0.000884
     11          1           0        4.630669   -1.273999   -0.893239
     12          1           0        4.630364   -1.274153    0.894434
     13          1           0        2.569054   -1.891899    0.000198
     14          1           0        0.118891   -2.056941   -0.000181
     15          1           0       -0.190128    2.235874    0.000184
     16          1           0        2.291709    2.398728    0.000573
 ---------------------------------------------------------------------

 SCF Done:  E(RM062X) =  -643.784961789     A.U. after    1 cycles

      1  C    Isotropic =   129.7339   Anisotropy =    73.8731

      2  O    Isotropic =   224.7567   Anisotropy =    96.4020

      3  C    Isotropic =     2.3457   Anisotropy =   171.6573

      4  C    Isotropic =    55.6973   Anisotropy =   182.9825

      5  C    Isotropic =    25.6014   Anisotropy =   184.5819

      6  C    Isotropic =    41.9134   Anisotropy =   116.1038

      7  I    Isotropic =   435.8620   Anisotropy =    72.2902

      8  C    Isotropic =    25.4923   Anisotropy =   184.4687

      9  C    Isotropic =    44.7828   Anisotropy =   172.2648

     10  H    Isotropic =    27.8290   Anisotropy =     8.4000

     11  H    Isotropic =    28.2674   Anisotropy =     8.0177

     12  H    Isotropic =    28.2674   Anisotropy =     8.0176

     13  H    Isotropic =    24.3572   Anisotropy =     8.7119

     14  H    Isotropic =    23.6088   Anisotropy =    12.3210

     15  H    Isotropic =    23.6965   Anisotropy =    11.8617

     16  H    Isotropic =    24.1431   Anisotropy =     7.0646

 The electronic state is 1-A.
 Alpha  occ. eigenvalues --  -19.66208 -10.61282 -10.59071 -10.58952 -10.55891
 Alpha  occ. eigenvalues --  -10.55788 -10.55165 -10.54854  -7.10067  -5.09401
 Alpha  occ. eigenvalues --   -5.08376  -5.08368  -2.06232  -2.05806  -2.05795
 Alpha  occ. eigenvalues --   -2.04947  -2.04946  -1.19609  -0.97089  -0.86815
 Alpha  occ. eigenvalues --   -0.85667  -0.80375  -0.76004  -0.70611  -0.67006
 Alpha  occ. eigenvalues --   -0.61636  -0.56616  -0.55238  -0.53418  -0.51945
 Alpha  occ. eigenvalues --   -0.50108  -0.48693  -0.46140  -0.43651  -0.40792
 Alpha  occ. eigenvalues --   -0.40109  -0.39349  -0.33398  -0.32107  -0.31918
 Alpha  occ. eigenvalues --   -0.27379
 Alpha virt. eigenvalues --   -0.00086   0.00802   0.02267   0.07894   0.09580
 Alpha virt. eigenvalues --    0.10954   0.12084   0.13247   0.13968   0.15297
 Alpha virt. eigenvalues --    0.15908   0.17000   0.17310   0.17511   0.18976

 Mulliken charges:
               1
     1  C   -0.310067
     2  O   -0.285739
     3  C    0.283417
     4  C   -0.244878
     5  C   -0.201444
     6  C    0.049436
     7  I   -0.116672
     8  C   -0.180512
     9  C   -0.206073
    10  H    0.164698
    11  H    0.160445
    12  H    0.160445
    13  H    0.182631
    14  H    0.186369
    15  H    0.186457
    16  H    0.171486
 Sum of Mulliken charges =  -0.00000

 Dipole moment (field-independent basis, Debye):
    X=              2.9268    Y=             -1.2126    Z=              0.0004  Tot=              3.1680
 Quadrupole moment (field-independent basis, Debye-Ang):
   XX=            -63.4158   YY=            -68.0808   ZZ=            -77.9740
   XY=             -6.5113   XZ=              0.0017   YZ=             -0.0000

 1\1\GINC-HPC-82-12\SP\RM062X\def2TZVP\C7H7I1O1\MANTIND\17-Sep-2024\0\\
 #p M062X/def2tzvp geom=check guess=read scf(xqc,tight) integral(grid=u
 ltrafine) scrf(SMD, solvent=1,4-Dioxane) nmr=giao\\spe\\0,1\C,0,5.0529
 949328,0.7133118652,-0.0002806392\O,0,4.2178145888,-0.4332527006,-0.00
 02343116\C,0,2.869399586,-0.2408880975,-0.0000158433\C,0,2.245407103,1
 .0111336106,0.0001969351\C,0,0.8496138877,1.0932104547,0.0004142712\C,
 0,0.0874222134,-0.0687752281,0.0004186135\I,0,-2.0502955664,0.06263309
 89,0.0007543205\C,0,0.7016955933,-1.3231617524,0.0002071768\C,0,2.0885

 Normal termination of Gaussian 16 at Tue Sep 17 10:26:11 2024.
