 Gaussian 16, Revision C.02,

 ----------------------------------------------------------------------
 #p B3LYP/6-31G(d,p) EmpiricalDispersion=GD3BJ opt freq scf(xqc,tight)
 integral(grid=ultrafine)
 ----------------------------------------------------------------------

 ----------------------------------
 opt-freq conformers_unique/conf_aa
 ----------------------------------
 Symbolic Z-matrix:
 Charge =  0 Multiplicity = 1

 SCF Done:  E(RB3LYP) =  -3527.75073515     A.U. after   15 cycles
 SCF Done:  E(RB3LYP) =  -3527.75233239     A.U. after   12 cycles
 SCF Done:  E(RB3LYP) =  -3527.75244905     A.U. after   10 cycles
 SCF Done:  E(RB3LYP) =  -3527.75245944     A.U. after    9 cycles
 Optimization completed.
    -- Stationary point found.
 Normal termination of Gaussian 16 at Tue Sep 17 09:54:43 2024.

 ----------------------------------------------------------------------
 #P Geom=AllCheck Guess=TCheck SCRF=Check GenChk RB3LYP/6-31G(d,p) Freq
 ----------------------------------------------------------------------

 Structure from the checkpoint file:  "smiles_00005_conf_0.chk"
 ----------------------------------
 opt-freq conformers_unique/conf_aa
 ----------------------------------
 Charge =  0 Multiplicity = 1

 SCF Done:  E(RB3LYP) =  -3527.75245944     A.U. after    1 cycles

                      1                      2                      3
                      A                      A                      A
 Frequencies --     70.5631               111.0036               143.9903
 Red. masses --      9.8863                 8.1736                15.3443
 Frc consts  --      0.0290                 0.0593                 0.1874
 IR Inten    --      3.5673                 0.0734                 0.5112

                      4                      5                      6
                      A                      A                      A
 Frequencies --    167.6055               172.9468               198.7504
 Red. masses --      7.5551                19.2768                 4.9077
 Frc consts  --      0.1250                 0.3397                 0.1142
 IR Inten    --      4.7923                 0.5736                 0.2214

                      7                      8                      9
                      A                      A                      A
 Frequencies --    284.9066               321.0090               355.9091
 Red. masses --     20.1156                 5.0911                15.1538
 Frc consts  --      0.9620                 0.3091                 1.1310
 IR Inten    --      1.0421                 0.6963                 4.5011

                     10                     11                     12
                      A                      A                      A
 Frequencies --    384.5613               459.1904               500.2527
 Red. masses --      7.1755                 5.1026                 4.7205
 Frc consts  --      0.6252                 0.6339                 0.6960
 IR Inten    --      3.9905                 1.8772                 3.9174

                     13                     14                     15
                      A                      A                      A
 Frequencies --    511.2184               546.0009               578.1456
 Red. masses --     10.9887                 7.0521                 5.5492
 Frc consts  --      1.6920                 1.2387                 1.0928
 IR Inten    --      0.8558                13.1511                10.8965

                     16                     17                     18
                      A                      A                      A
 Frequencies --    583.9318               689.2993               711.0452
 Red. masses --      3.9543                 8.6696                 4.2424
 Frc consts  --      0.7944                 2.4270                 1.2637
 IR Inten    --      1.2305                45.1613                 0.5766

                     19                     20                     21
                      A                      A                      A
 Frequencies --    786.6354               814.2604               851.0277
 Red. masses --      3.3233                 8.8168                 1.8473
 Frc consts  --      1.2116                 3.4442                 0.7883
 IR Inten    --      0.9520                21.4503                48.1253

                     22                     23                     24
                      A                      A                      A
 Frequencies --    865.5359               888.1359               913.3352
 Red. masses --      6.9053                 6.8718                 1.4585
 Frc consts  --      3.0479                 3.1936                 0.7168
 IR Inten    --     47.1993                 8.7596                15.3357

                     25                     26                     27
                      A                      A                      A
 Frequencies --    941.8922               970.2932              1053.8965
 Red. masses --      1.3935                 1.2899                 2.8358
 Frc consts  --      0.7284                 0.7155                 1.8558
 IR Inten    --      2.2538                 0.0006                36.0206

                     28                     29                     30
                      A                      A                      A
 Frequencies --   1098.3907              1140.6646              1219.0728
 Red. masses --      2.2521                 2.7067                 1.6709
 Frc consts  --      1.6009                 2.0750                 1.4631
 IR Inten    --     16.0704                20.2490                 4.8437

                     31                     32                     33
                      A                      A                      A
 Frequencies --   1241.5478              1264.5659              1339.4443
 Red. masses --      1.9164                 2.7330                 2.9766
 Frc consts  --      1.7405                 2.5750                 3.1464
 IR Inten    --     17.0900                 5.7240               206.0112

                     34                     35                     36
                      A                      A                      A
 Frequencies --   1365.6733              1418.9822              1451.4001
 Red. masses --      9.1293                 2.1053                 3.1749
 Frc consts  --     10.0318                 2.4975                 3.9406
 IR Inten    --     20.8115                23.8962                 3.8528

                     37                     38                     39
                      A                      A                      A
 Frequencies --   1484.8418              1602.7754              1642.7777
 Red. masses --      4.5256                 8.0407                 8.0951
 Frc consts  --      5.8788                12.1700                12.8715
 IR Inten    --    259.9599                64.6863                30.1863

                     40                     41                     42
                      A                      A                      A
 Frequencies --   1670.8695              1761.7593              3231.3163
 Red. masses --      6.2202                11.4291                 1.0883
 Frc consts  --     10.2315                20.9004                 6.6950
 IR Inten    --     33.8693               296.2316                 1.3901

                     43                     44                     45
                      A                      A                      A
 Frequencies --   3236.7117              3237.3536              3248.5447
 Red. masses --      1.0922                 1.0925                 1.1003
 Frc consts  --      6.7413                 6.7459                 6.8411
 IR Inten    --      5.6258                 2.3487                 3.5389

 - Thermochemistry -
 -------------------
 Temperature   298.150 Kelvin.  Pressure   1.00000 Atm.
 Atom     1 has atomic number  8 and mass  15.99491

 Molecular mass:   257.90832 amu.
 Principal axes and moments of inertia in atomic units:
                           1         2         3
     Eigenvalues --  3249.341223914.170537163.51168
           X            0.99703  -0.07697   0.00007
           Y            0.07697   0.99703   0.00002
           Z           -0.00007  -0.00001   1.00000
 This molecule is an asymmetric top.
 Rotational symmetry number  1.
 Warning -- assumption of classical behavior for rotation
           may cause significant error
 Rotational temperatures (Kelvin)      0.02666     0.02213     0.01209
 Rotational constants (GHZ):           0.55542     0.46108     0.25194
 Zero-point vibrational energy     284304.7 (Joules/Mol)
                                   67.95045 (Kcal/Mol)
 Warning -- explicit consideration of  16 degrees of freedom as
           vibrations may cause significant error
 Vibrational temperatures:    101.52   159.71   207.17   241.15   248.83
          (Kelvin)            285.96   409.92   461.86   512.07   553.30
                              660.67   719.75   735.53   785.57   831.82
                              840.15   991.75  1023.04  1131.79  1171.54
                             1224.44  1245.31  1277.83  1314.09  1355.17
                             1396.04  1516.32  1580.34  1641.16  1753.97
                             1786.31  1819.43  1927.16  1964.90  2041.60
                             2088.24  2136.36  2306.04  2363.59  2404.01
                             2534.78  4649.14  4656.91  4657.83  4673.93

 Zero-point correction=                           0.108286 (Hartree/Particle)
 Thermal correction to Energy=                    0.118671
 Thermal correction to Enthalpy=                  0.119615
 Thermal correction to Gibbs Free Energy=         0.070496
 Sum of electronic and zero-point Energies=          -3527.644173
 Sum of electronic and thermal Energies=             -3527.633789
 Sum of electronic and thermal Enthalpies=           -3527.632845
 Sum of electronic and thermal Free Energies=        -3527.681964

                     E (Thermal)             CV                S
                      KCal/Mol        Cal/Mol-Kelvin    Cal/Mol-Kelvin
 Total                   74.467             38.892            103.379
 Electronic               0.000              0.000              0.000
 Translational            0.889              2.981             42.542
 Rotational               0.889              2.981             32.877
 Vibrational             72.689             32.931             27.960
 Vibration     1          0.598              1.968              4.138
 Vibration     2          0.607              1.940              3.251
 Vibration     3          0.616              1.909              2.750
 Vibration     4          0.624              1.882              2.462
 Vibration     5          0.626              1.876              2.403
 Vibration     6          0.637              1.842              2.145
 Vibration     7          0.683              1.702              1.504
 Vibration     8          0.706              1.633              1.305
 Vibration     9          0.731              1.563              1.140
 Vibration    10          0.753              1.503              1.021
 Vibration    11          0.817              1.341              0.768
 Vibration    12          0.856              1.249              0.657
 Vibration    13          0.866              1.225              0.631
 Vibration    14          0.901              1.148              0.553
 Vibration    15          0.935              1.079              0.489
 Vibration    16          0.941              1.066              0.478

 Optimization completed.
    -- Stationary point found.
 Normal termination of Gaussian 16 at Tue Sep 17 09:55:49 2024.

 ----------------------------------------------------------------------
 #p M062X/def2tzvp geom=check guess=read scf(xqc,tight) integral(grid=u
 ltrafine) scrf(SMD, solvent=1,4-Dioxane) polar prop=efg volume
 ----------------------------------------------------------------------

 ---
 spe
 ---
 Structure from the checkpoint file:  "smiles_00005_conf_0.chk"
 Charge =  0 Multiplicity = 1

 SCF Done:  E(RM062X) =  -3530.20394012     A.U. after   14 cycles

  Exact polarizability:     205.113       3.729     201.604      -0.008      -0.003      81.165
 Approx polarizability:     238.727       9.792     209.938      -0.002      -0.001     106.319

 Normal termination of Gaussian 16 at Tue Sep 17 10:47:57 2024.
 Gaussian 16:  ES64L-G16RevC.02  7-Dec-2021

 ----------------------------------------------------------------------
 #p M062X/def2tzvp geom=check guess=read scf(xqc,tight) integral(grid=u
 ltrafine) scrf(SMD, solvent=1,4-Dioxane) nmr=giao
 ----------------------------------------------------------------------

 ---
 spe
 ---
 Structure from the checkpoint file:  "smiles_00005_conf_0.chk"
 Charge =  0 Multiplicity = 1

                         Standard orientation:
 ---------------------------------------------------------------------
 Center     Atomic      Atomic             Coordinates (Angstroms)
 Number     Number       Type             X           Y           Z
 ---------------------------------------------------------------------
      1          8           0        3.547187   -1.494463    0.000224
      2          6           0        2.331310   -1.657873   -0.000666
      3          6           0        1.680665   -2.965489    0.000027
      4          6           0        0.339211   -3.074684    0.000118
      5          8           0       -0.517616   -2.024873   -0.000010
      6          6           0       -0.004798   -0.760284   -0.000139
      7          6           0       -0.907165    0.313555   -0.000009
      8         35           0       -2.776256   -0.013732    0.000224
      9          6           0       -0.433213    1.616397    0.000004
     10          6           0        0.949820    1.846539   -0.000115
     11         17           0        1.525899    3.500804   -0.000116
     12          6           0        1.852682    0.798116   -0.000264
     13          6           0        1.375381   -0.518608   -0.000299
     14          1           0        2.297543   -3.855403    0.000352
     15          1           0       -0.205634   -4.010685    0.000429
     16          1           0       -1.127592    2.446727    0.000121
     17          1           0        2.924418    0.954992   -0.000415
 ---------------------------------------------------------------------

 SCF Done:  E(RM062X) =  -3530.20394012     A.U. after    1 cycles

      1  O    Isotropic =  -270.1023   Anisotropy =   992.3565

      2  C    Isotropic =   -13.8217   Anisotropy =   194.5906

      3  C    Isotropic =    54.0592   Anisotropy =   144.8534

      4  C    Isotropic =     7.8677   Anisotropy =   147.7159

      5  O    Isotropic =   101.3256   Anisotropy =   343.4871

      6  C    Isotropic =    12.0258   Anisotropy =   155.4271

      7  C    Isotropic =    36.8590   Anisotropy =   129.9940

      8  Br   Isotropic =  2147.3628   Anisotropy =  1067.7825

      9  C    Isotropic =    25.2321   Anisotropy =   163.4877

     10  C    Isotropic =    25.9316   Anisotropy =   140.5207

     11  Cl   Isotropic =   672.5617   Anisotropy =   514.3709

     12  C    Isotropic =    37.6937   Anisotropy =   196.8995

     13  C    Isotropic =    36.7814   Anisotropy =   187.9628

     14  H    Isotropic =    24.8776   Anisotropy =     4.9279

     15  H    Isotropic =    23.3781   Anisotropy =     7.0498

     16  H    Isotropic =    23.2501   Anisotropy =    13.4776

     17  H    Isotropic =    22.8183   Anisotropy =     9.6441

 The electronic state is 1-A.
 Alpha  occ. eigenvalues -- -485.39372-102.65866 -63.37831 -57.19790 -57.19537
 Alpha  occ. eigenvalues --  -57.19525 -19.72492 -19.61658 -10.65147 -10.64351
 Alpha  occ. eigenvalues --  -10.64343 -10.62936 -10.62782 -10.58694 -10.58305
 Alpha  occ. eigenvalues --  -10.57661 -10.56104  -9.82105  -9.04470  -7.54310
 Alpha  occ. eigenvalues --   -7.53786  -7.53772  -6.86920  -6.85985  -6.85943
 Alpha  occ. eigenvalues --   -2.90297  -2.89965  -2.89920  -2.89049  -2.89048
 Alpha  occ. eigenvalues --   -1.26454  -1.16346  -1.02176  -0.96913  -0.93397
 Alpha  occ. eigenvalues --   -0.90675  -0.87338  -0.84369  -0.76062  -0.75741
 Alpha  occ. eigenvalues --   -0.69279  -0.65332  -0.62810  -0.61197  -0.57712
 Alpha  occ. eigenvalues --   -0.56418  -0.55101  -0.52776  -0.51276  -0.50804
 Alpha  occ. eigenvalues --   -0.49330  -0.48154  -0.47921  -0.46447  -0.43568
 Alpha  occ. eigenvalues --   -0.42883  -0.39324  -0.38668  -0.36727  -0.34546
 Alpha  occ. eigenvalues --   -0.34051  -0.32773  -0.30173
 Alpha virt. eigenvalues --   -0.04844  -0.01376   0.01183   0.01520   0.07031
 Alpha virt. eigenvalues --    0.08958   0.09959   0.10011   0.11118   0.11865
 Alpha virt. eigenvalues --    0.13215   0.15036   0.16237   0.16831   0.18336

 Mulliken charges:
               1
     1  O   -0.363345
     2  C    0.292449
     3  C   -0.275984
     4  C    0.045064
     5  O   -0.234787
     6  C    0.280151
     7  C   -0.083671
     8  Br  -0.059781
     9  C   -0.139927
    10  C    0.094812
    11  Cl  -0.073355
    12  C   -0.218083
    13  C   -0.020364
    14  H    0.180132
    15  H    0.189906
    16  H    0.189304
    17  H    0.197480
 Sum of Mulliken charges =  -0.00000

 Dipole moment (field-independent basis, Debye):
    X=             -3.0137    Y=             -1.8680    Z=             -0.0009  Tot=              3.5457
 Quadrupole moment (field-independent basis, Debye-Ang):
   XX=           -107.9966   YY=            -80.6997   ZZ=            -94.6120
   XY=              1.8257   XZ=             -0.0041   YZ=             -0.0000

 Normal termination of Gaussian 16 at Tue Sep 17 11:11:47 2024.
