 Gaussian 16, Revision C.02,

 ----------------------------------------------------------------------
 #p B3LYP/6-31G(d,p) EmpiricalDispersion=GD3BJ opt freq scf(xqc,tight)
 integral(grid=ultrafine)
 ----------------------------------------------------------------------

 ----------------------------------
 opt-freq conformers_unique/conf_aa
 ----------------------------------
 Symbolic Z-matrix:
 Charge =  0 Multiplicity = 1

 SCF Done:  E(RB3LYP) =  -3046.09625065     A.U. after   15 cycles
 SCF Done:  E(RB3LYP) =  -3046.09797184     A.U. after   12 cycles
 SCF Done:  E(RB3LYP) =  -3046.09810304     A.U. after   10 cycles
 SCF Done:  E(RB3LYP) =  -3046.09811602     A.U. after    9 cycles
 SCF Done:  E(RB3LYP) =  -3046.09811703     A.U. after    8 cycles
 Optimization completed.
    -- Stationary point found.
 Normal termination of Gaussian 16 at Tue Sep 17 09:46:56 2024.

 ----------------------------------------------------------------------
 #P Geom=AllCheck Guess=TCheck SCRF=Check GenChk RB3LYP/6-31G(d,p) Freq
 ----------------------------------------------------------------------

 Structure from the checkpoint file:  "smiles_00002_conf_0.chk"
 ----------------------------------
 opt-freq conformers_unique/conf_aa
 ----------------------------------
 Charge =  0 Multiplicity = 1

 SCF Done:  E(RB3LYP) =  -3046.09811703     A.U. after    1 cycles

                      1                      2                      3
                      A                      A                      A
 Frequencies --     93.3475               139.6381               180.4907
 Red. masses --      8.0886                10.8920                 5.9013
 Frc consts  --      0.0415                 0.1251                 0.1133
 IR Inten    --      4.3443                 2.3001                 3.5626

                      4                      5                      6
                      A                      A                      A
 Frequencies --    200.5244               244.4717               295.3418
 Red. masses --      4.8819                 2.5919                14.5354
 Frc consts  --      0.1157                 0.0913                 0.7470
 IR Inten    --      0.0640                 1.3568                 4.7419

                      7                      8                      9
                      A                      A                      A
 Frequencies --    313.6164               460.5438               529.2527
 Red. masses --      8.3159                 4.6031                 4.9416
 Frc consts  --      0.4819                 0.5752                 0.8155
 IR Inten    --      0.9523                 7.1206                 6.5655

                     10                     11                     12
                      A                      A                      A
 Frequencies --    537.6023               591.2894               610.7980
 Red. masses --      6.7812                 8.9986                 9.5778
 Frc consts  --      1.1547                 1.8536                 2.1053
 IR Inten    --      1.4300                 3.7606                 8.9172

                     13                     14                     15
                      A                      A                      A
 Frequencies --    711.9647               724.9033               759.0811
 Red. masses --      4.2545                 8.5074                 4.7889
 Frc consts  --      1.2706                 2.6340                 1.6258
 IR Inten    --      0.5231                 4.3801                17.6342

                     16                     17                     18
                      A                      A                      A
 Frequencies --    859.0329               866.6573               934.8135
 Red. masses --      5.6028                 7.4764                 1.4943
 Frc consts  --      2.4360                 3.3085                 0.7694
 IR Inten    --      9.4549                24.9467                 6.3966

                     19                     20                     21
                      A                      A                      A
 Frequencies --    981.6879              1024.2164              1046.2874
 Red. masses --      1.4587                 1.8019                 5.4533
 Frc consts  --      0.8283                 1.1137                 3.5173
 IR Inten    --      0.0005                 0.2095                90.3732

                     22                     23                     24
                      A                      A                      A
 Frequencies --   1059.1498              1160.6287              1180.9892
 Red. masses --      9.2736                 3.3488                 5.5597
 Frc consts  --      6.1293                 2.6578                 4.5687
 IR Inten    --    155.2843                15.2029                45.2009

                     25                     26                     27
                      A                      A                      A
 Frequencies --   1198.0782              1248.4931              1295.5364
 Red. masses --      1.0798                 2.1774                 2.0067
 Frc consts  --      0.9132                 1.9997                 1.9844
 IR Inten    --      0.0372                17.5926                12.8853

                     28                     29                     30
                      A                      A                      A
 Frequencies --   1317.0663              1376.2500              1444.8834
 Red. masses --      5.1759                 1.7917                 2.4975
 Frc consts  --      5.2899                 1.9994                 3.0720
 IR Inten    --     19.2570                39.3512                19.3089

                     31                     32                     33
                      A                      A                      A
 Frequencies --   1489.2404              1506.3833              1628.0419
 Red. masses --      2.1265                 1.2365                 8.9824
 Frc consts  --      2.7788                 1.6531                14.0272
 IR Inten    --     21.9152                 2.6533                 3.6656

                     34                     35                     36
                      A                      A                      A
 Frequencies --   1648.9409              1886.1822              3063.0156
 Red. masses --      8.3923                13.0354                 1.0575
 Frc consts  --     13.4443                27.3238                 5.8456
 IR Inten    --     47.8409               446.8722                 9.2746

                     37                     38                     39
                      A                      A                      A
 Frequencies --   3105.2802              3193.0992              3201.3445
 Red. masses --      1.1085                 1.0909                 1.0932
 Frc consts  --      6.2977                 6.5531                 6.6012
 IR Inten    --      7.0944                 4.7994                 2.6524

 - Thermochemistry -
 -------------------
 Temperature   298.150 Kelvin.  Pressure   1.00000 Atm.
 Atom     1 has atomic number  8 and mass  15.99491

 Molecular mass:   212.94254 amu.
 Principal axes and moments of inertia in atomic units:
                           1         2         3
     Eigenvalues --  1098.476563488.411104575.51345
           X            0.99993   0.01210  -0.00001
           Y           -0.01210   0.99993   0.00011
           Z            0.00001  -0.00011   1.00000
 This molecule is an asymmetric top.
 Rotational symmetry number  1.
 Warning -- assumption of classical behavior for rotation
           may cause significant error
 Rotational temperatures (Kelvin)      0.07885     0.02483     0.01893
 Rotational constants (GHZ):           1.64295     0.51735     0.39443
 Zero-point vibrational energy     263825.4 (Joules/Mol)
                                   63.05579 (Kcal/Mol)
 Warning -- explicit consideration of  12 degrees of freedom as
           vibrations may cause significant error
 Vibrational temperatures:    134.31   200.91   259.69   288.51   351.74
          (Kelvin)            424.93   451.22   662.62   761.48   773.49
                              850.73   878.80  1024.36  1042.97  1092.15
                             1235.96  1246.93  1344.99  1412.43  1473.62
                             1505.37  1523.88  1669.89  1699.18  1723.77
                             1796.30  1863.99  1894.96  1980.12  2078.87
                             2142.68  2167.35  2342.39  2372.46  2713.80
                             4407.00  4467.81  4594.16  4606.02

 Zero-point correction=                           0.100486 (Hartree/Particle)
 Thermal correction to Energy=                    0.108906
 Thermal correction to Enthalpy=                  0.109850
 Thermal correction to Gibbs Free Energy=         0.065507
 Sum of electronic and zero-point Energies=          -3045.997631
 Sum of electronic and thermal Energies=             -3045.989212
 Sum of electronic and thermal Enthalpies=           -3045.988267
 Sum of electronic and thermal Free Energies=        -3046.032610

                     E (Thermal)             CV                S
                      KCal/Mol        Cal/Mol-Kelvin    Cal/Mol-Kelvin
 Total                   68.339             31.238             93.327
 Electronic               0.000              0.000              0.000
 Translational            0.889              2.981             41.971
 Rotational               0.889              2.981             31.239
 Vibrational             66.562             25.276             20.117
 Vibration     1          0.602              1.954              3.589
 Vibration     2          0.615              1.914              2.809
 Vibration     3          0.629              1.866              2.323
 Vibration     4          0.638              1.839              2.128
 Vibration     5          0.660              1.772              1.770
 Vibration     6          0.690              1.682              1.443
 Vibration     7          0.701              1.648              1.343
 Vibration     8          0.818              1.338              0.765
 Vibration     9          0.884              1.185              0.589
 Vibration    10          0.893              1.167              0.570
 Vibration    11          0.949              1.050              0.465
 Vibration    12          0.970              1.009              0.431

 Optimization completed.
    -- Stationary point found.
 Normal termination of Gaussian 16 at Tue Sep 17 09:48:08 2024.

 ----------------------------------------------------------------------
 #p M062X/def2tzvp geom=check guess=read scf(xqc,tight) integral(grid=u
 ltrafine) scrf(SMD, solvent=1,4-Dioxane) polar prop=efg volume
 ----------------------------------------------------------------------

 ---
 spe
 ---
 Structure from the checkpoint file:  "smiles_00002_conf_0.chk"
 Charge =  0 Multiplicity = 1

 SCF Done:  E(RM062X) =  -3048.55834792     A.U. after   12 cycles

  Exact polarizability:     167.985      -8.835     133.499       0.004      -0.009      67.751
 Approx polarizability:     183.171     -11.862     153.603       0.009      -0.010      86.339

 Normal termination of Gaussian 16 at Tue Sep 17 10:23:02 2024.
 Gaussian 16:  ES64L-G16RevC.02  7-Dec-2021

 ----------------------------------------------------------------------
 #p M062X/def2tzvp geom=check guess=read scf(xqc,tight) integral(grid=u
 ltrafine) scrf(SMD, solvent=1,4-Dioxane) nmr=giao
 ----------------------------------------------------------------------

 ---
 spe
 ---
 Structure from the checkpoint file:  "smiles_00002_conf_0.chk"
 Charge =  0 Multiplicity = 1

                         Standard orientation:
 ---------------------------------------------------------------------
 Center     Atomic      Atomic             Coordinates (Angstroms)
 Number     Number       Type             X           Y           Z
 ---------------------------------------------------------------------
      1          8           0       -3.899055   -0.332769   -0.000382
      2          6           0       -2.711176   -0.515970    0.000607
      3          8           0       -2.143709   -1.773508    0.000088
      4          6           0       -0.707360   -1.703752    0.000143
      5          6           0       -0.398422   -0.237168    0.000151
      6          6           0        0.786656    0.476280    0.000036
      7         35           0        2.461626   -0.420197    0.000046
      8          6           0        0.706958    1.873293   -0.000209
      9          7           0       -0.451755    2.547552   -0.000359
     10          6           0       -1.597533    1.854936   -0.000239
     11          6           0       -1.596370    0.463541    0.000110
     12          1           0       -0.320696   -2.213284    0.889005
     13          1           0       -0.320636   -2.213211   -0.888735
     14          1           0        1.618210    2.464970   -0.000349
     15          1           0       -2.525924    2.418810   -0.000251
 ---------------------------------------------------------------------

 SCF Done:  E(RM062X) =  -3048.55834792     A.U. after    1 cycles

      1  O    Isotropic =  -132.4301   Anisotropy =   654.8525

      2  C    Isotropic =    -1.9839   Anisotropy =    96.4530

      3  O    Isotropic =    94.1150   Anisotropy =   220.6345

      4  C    Isotropic =   112.4893   Anisotropy =    65.6262

      5  C    Isotropic =     1.7560   Anisotropy =   227.0222

      6  C    Isotropic =    34.6484   Anisotropy =   138.3274

      7  Br   Isotropic =  2187.8275   Anisotropy =  1027.1288

      8  C    Isotropic =     5.0074   Anisotropy =   185.0218

      9  N    Isotropic =  -150.1273   Anisotropy =   654.7934

     10  C    Isotropic =    13.0783   Anisotropy =   210.8430

     11  C    Isotropic =    40.2126   Anisotropy =   177.6896

     12  H    Isotropic =    26.5287   Anisotropy =     5.7193

     13  H    Isotropic =    26.5295   Anisotropy =     5.7188

     14  H    Isotropic =    22.1211   Anisotropy =    11.8487

     15  H    Isotropic =    21.8092   Anisotropy =     7.7820

 The electronic state is 1-A.
 Alpha  occ. eigenvalues -- -485.40039 -63.38503 -57.20454 -57.20209 -57.20203
 Alpha  occ. eigenvalues --  -19.68782 -19.63266 -14.78047 -10.69389 -10.63151
 Alpha  occ. eigenvalues --  -10.62899 -10.61319 -10.61016 -10.60382 -10.58480
 Alpha  occ. eigenvalues --   -9.05140  -6.87568  -6.86657  -6.86638  -2.90945
 Alpha  occ. eigenvalues --   -2.90614  -2.90591  -2.89743  -2.89743  -1.24466
 Alpha  occ. eigenvalues --   -1.16501  -1.08483  -0.97114  -0.92837  -0.86302
 Alpha  occ. eigenvalues --   -0.83992  -0.76901  -0.73475  -0.66903  -0.61805
 Alpha  occ. eigenvalues --   -0.60421  -0.59779  -0.58903  -0.54078  -0.51677
 Alpha  occ. eigenvalues --   -0.50704  -0.50564  -0.50343  -0.46477  -0.45748
 Alpha  occ. eigenvalues --   -0.41622  -0.39454  -0.38085  -0.37500  -0.36225
 Alpha  occ. eigenvalues --   -0.35159  -0.32757
 Alpha virt. eigenvalues --   -0.04326  -0.02434   0.01970   0.06697   0.07037
 Alpha virt. eigenvalues --    0.09609   0.10433   0.11913   0.13256   0.13445
 Alpha virt. eigenvalues --    0.15416   0.16451   0.17760   0.18575   0.19448

 Mulliken charges:
               1
     1  O   -0.305647
     2  C    0.305971
     3  O   -0.244123
     4  C   -0.096200
     5  C    0.043297
     6  C   -0.014084
     7  Br  -0.063183
     8  C   -0.036684
     9  N   -0.230012
    10  C   -0.070026
    11  C   -0.025555
    12  H    0.182327
    13  H    0.182339
    14  H    0.185410
    15  H    0.186168
 Sum of Mulliken charges =   0.00000

 Dipole moment (field-independent basis, Debye):
    X=              4.0340    Y=             -0.7723    Z=              0.0019  Tot=              4.1072
 Quadrupole moment (field-independent basis, Debye-Ang):
   XX=            -92.0363   YY=            -76.0856   ZZ=            -73.8877
   XY=             -4.2686   XZ=             -0.0063   YZ=             -0.0005

 Normal termination of Gaussian 16 at Tue Sep 17 10:34:47 2024.
