 Gaussian 16, Revision C.02,

 ----------------------------------------------------------------------
 #p B3LYP/6-31G(d,p) EmpiricalDispersion=GD3BJ opt freq scf(xqc,tight)
 integral(grid=ultrafine)
 ----------------------------------------------------------------------

 ----------------------------------
 opt-freq conformers_unique/conf_ac
 ----------------------------------
 Symbolic Z-matrix:
 Charge =  0 Multiplicity = 1

 SCF Done:  E(RB3LYP) =  -3477.46415982     A.U. after   13 cycles
 SCF Done:  E(RB3LYP) =  -3477.46529313     A.U. after   11 cycles
 SCF Done:  E(RB3LYP) =  -3477.46551769     A.U. after   10 cycles
 SCF Done:  E(RB3LYP) =  -3477.46553040     A.U. after    8 cycles
 SCF Done:  E(RB3LYP) =  -3477.46553419     A.U. after    8 cycles
 SCF Done:  E(RB3LYP) =  -3477.46555866     A.U. after   11 cycles
 SCF Done:  E(RB3LYP) =  -3477.46557107     A.U. after   12 cycles
 SCF Done:  E(RB3LYP) =  -3477.46560788     A.U. after   11 cycles
 SCF Done:  E(RB3LYP) =  -3477.46555374     A.U. after   12 cycles
 SCF Done:  E(RB3LYP) =  -3477.46569109     A.U. after   15 cycles
 SCF Done:  E(RB3LYP) =  -3477.46588260     A.U. after   10 cycles
 SCF Done:  E(RB3LYP) =  -3477.46588210     A.U. after   10 cycles
 SCF Done:  E(RB3LYP) =  -3477.46589570     A.U. after   12 cycles
 SCF Done:  E(RB3LYP) =  -3477.46589659     A.U. after    9 cycles
 SCF Done:  E(RB3LYP) =  -3477.46589663     A.U. after    7 cycles
 SCF Done:  E(RB3LYP) =  -3477.46589666     A.U. after    7 cycles
 SCF Done:  E(RB3LYP) =  -3477.46589666     A.U. after    6 cycles
 Optimization completed.
    -- Stationary point found.
 Normal termination of Gaussian 16 at Tue Sep 17 09:54:34 2024.

 ----------------------------------------------------------------------
 #P Geom=AllCheck Guess=TCheck SCRF=Check GenChk RB3LYP/6-31G(d,p) Freq
 ----------------------------------------------------------------------

 Structure from the checkpoint file:  "smiles_00107_conf_2.chk"
 ----------------------------------
 opt-freq conformers_unique/conf_ac
 ----------------------------------
 Charge =  0 Multiplicity = 1

 SCF Done:  E(RB3LYP) =  -3477.46589666     A.U. after    1 cycles

                      1                      2                      3
                      A                      A                      A
 Frequencies --     15.1732                17.0192                82.8312
 Red. masses --     19.5895                18.8769                13.6925
 Frc consts  --      0.0027                 0.0032                 0.0554
 IR Inten    --      0.0132                 0.0292                 0.9709

                      4                      5                      6
                      A                      A                      A
 Frequencies --    110.0460               117.8105               146.2341
 Red. masses --     18.2606                21.1923                 7.6270
 Frc consts  --      0.1303                 0.1733                 0.0961
 IR Inten    --      0.8656                 0.1608                 0.0113

                      7                      8                      9
                      A                      A                      A
 Frequencies --    183.9319               252.8532               264.5023
 Red. masses --      5.0527                23.2540                12.5075
 Frc consts  --      0.1007                 0.8760                 0.5156
 IR Inten    --      0.0475                 0.0083                 0.9220

                     10                     11                     12
                      A                      A                      A
 Frequencies --    294.2277               314.5561               343.2084
 Red. masses --     14.4743                 5.6958                 8.6479
 Frc consts  --      0.7383                 0.3320                 0.6002
 IR Inten    --      1.3208                 0.0059                 1.1408

                     13                     14                     15
                      A                      A                      A
 Frequencies --    374.4111               418.0522               451.3642
 Red. masses --      8.0275                10.2330                 8.4810
 Frc consts  --      0.6630                 1.0537                 1.0180
 IR Inten    --      4.4602                 5.9634                 2.3318

                     16                     17                     18
                      A                      A                      A
 Frequencies --    497.4750               507.5387               567.1334
 Red. masses --     12.0594                 9.7865                15.0780
 Frc consts  --      1.7584                 1.4853                 2.8574
 IR Inten    --      0.0891                 3.0107                 0.0026

                     19                     20                     21
                      A                      A                      A
 Frequencies --    600.6872               606.5066               676.2414
 Red. masses --      7.0290                 8.4153                 7.5736
 Frc consts  --      1.4943                 1.8238                 2.0406
 IR Inten    --      1.2299                 0.3175                 1.5040

                     22                     23                     24
                      A                      A                      A
 Frequencies --    680.4800               702.4031               717.9914
 Red. masses --     13.2219                13.6437                 2.5192
 Frc consts  --      3.6072                 3.9660                 0.7652
 IR Inten    --     38.0089                40.3600                12.3500

                     25                     26                     27
                      A                      A                      A
 Frequencies --    800.9216               859.7853               913.4052
 Red. masses --     12.4097                11.9613                 1.5964
 Frc consts  --      4.6902                 5.2097                 0.7847
 IR Inten    --     41.2606                18.6623                42.3285

                     28                     29                     30
                      A                      A                      A
 Frequencies --    935.1391               943.4279              1017.6786
 Red. masses --      1.3592                 1.3782                 6.3931
 Frc consts  --      0.7003                 0.7228                 3.9010
 IR Inten    --      0.0627                 0.0234                 0.0069

                     31                     32                     33
                      A                      A                      A
 Frequencies --   1119.7389              1125.1970              1131.6302
 Red. masses --      5.7705                 1.8154                 2.0394
 Frc consts  --      4.2628                 1.3542                 1.5387
 IR Inten    --     11.5283                19.0585                 9.6925

                     34                     35                     36
                      A                      A                      A
 Frequencies --   1196.7309              1198.8078              1219.7003
 Red. masses --     12.9351                12.6826                 8.7103
 Frc consts  --     10.9147                10.7388                 7.6347
 IR Inten    --      0.0230               503.0611                96.7869

                     37                     38                     39
                      A                      A                      A
 Frequencies --   1226.0327              1292.9628              1297.5157
 Red. masses --      6.0547                 2.4736                 1.6746
 Frc consts  --      5.3623                 2.4365                 1.6611
 IR Inten    --    242.7772               414.6200               189.4699

                     40                     41                     42
                      A                      A                      A
 Frequencies --   1366.1691              1369.5045              1487.7653
 Red. masses --      5.4798                 5.8786                 4.2253
 Frc consts  --      6.0259                 6.4961                 5.5103
 IR Inten    --      2.2842               333.8397                 3.2141

                     43                     44                     45
                      A                      A                      A
 Frequencies --   1488.8713              1643.2172              1667.3952
 Red. masses --      4.0165                 6.7467                 6.2668
 Frc consts  --      5.2458                10.7333                10.2653
 IR Inten    --      9.5316                 9.9932                 5.9736

                     46                     47                     48
                      A                      A                      A
 Frequencies --   3238.4093              3238.6041              3240.9200
 Red. masses --      1.0918                 1.0926                 1.0917
 Frc consts  --      6.7464                 6.7522                 6.7561
 IR Inten    --      1.6469                 0.3434                 0.9899

 - Thermochemistry -
 -------------------
 Temperature   298.150 Kelvin.  Pressure   1.00000 Atm.
 Atom     1 has atomic number  9 and mass  18.99840

 Molecular mass:   291.93223 amu.
 Principal axes and moments of inertia in atomic units:
                           1         2         3
     Eigenvalues --  4732.243845217.103119309.86363
           X            1.00000  -0.00002  -0.00000
           Y            0.00002   1.00000   0.00038
           Z            0.00000  -0.00038   1.00000
 This molecule is an asymmetric top.
 Rotational symmetry number  1.
 Warning -- assumption of classical behavior for rotation
           may cause significant error
 Rotational temperatures (Kelvin)      0.01830     0.01660     0.00930
 Rotational constants (GHZ):           0.38137     0.34593     0.19385
 Zero-point vibrational energy     262952.4 (Joules/Mol)
                                   62.84713 (Kcal/Mol)
 Warning -- explicit consideration of  20 degrees of freedom as
           vibrations may cause significant error
 Vibrational temperatures:     21.83    24.49   119.18   158.33   169.50
          (Kelvin)            210.40   264.64   363.80   380.56   423.33
                              452.58   493.80   538.69   601.48   649.41
                              715.76   730.24   815.98   864.25   872.63
                              972.96   979.06  1010.60  1033.03  1152.35
                             1237.04  1314.19  1345.46  1357.38  1464.21
                             1611.05  1618.91  1628.16  1721.83  1724.82
                             1754.88  1763.99  1860.29  1866.84  1965.61
                             1970.41  2140.56  2142.15  2364.22  2399.01
                             4659.35  4659.63  4662.96

 Zero-point correction=                           0.100153 (Hartree/Particle)
 Thermal correction to Energy=                    0.113167
 Thermal correction to Enthalpy=                  0.114112
 Thermal correction to Gibbs Free Energy=         0.056428
 Sum of electronic and zero-point Energies=          -3477.365743
 Sum of electronic and thermal Energies=             -3477.352729
 Sum of electronic and thermal Enthalpies=           -3477.351785
 Sum of electronic and thermal Free Energies=        -3477.409468

                     E (Thermal)             CV                S
                      KCal/Mol        Cal/Mol-Kelvin    Cal/Mol-Kelvin
 Total                   71.014             46.563            121.405
 Electronic               0.000              0.000              0.000
 Translational            0.889              2.981             42.911
 Rotational               0.889              2.981             33.796
 Vibrational             69.236             40.602             44.697
 Vibration     1          0.593              1.986              7.183
 Vibration     2          0.593              1.986              6.955
 Vibration     3          0.600              1.961              3.823
 Vibration     4          0.606              1.941              3.268
 Vibration     5          0.608              1.935              3.136
 Vibration     6          0.617              1.907              2.721
 Vibration     7          0.631              1.862              2.288
 Vibration     8          0.664              1.758              1.711
 Vibration     9          0.671              1.738              1.632
 Vibration    10          0.689              1.684              1.450
 Vibration    11          0.702              1.646              1.338
 Vibration    12          0.722              1.589              1.197
 Vibration    13          0.746              1.525              1.062
 Vibration    14          0.781              1.431              0.899
 Vibration    15          0.810              1.358              0.792
 Vibration    16          0.853              1.256              0.664
 Vibration    17          0.863              1.233              0.640
 Vibration    18          0.923              1.102              0.510
 Vibration    19          0.959              1.030              0.448
 Vibration    20          0.965              1.018              0.439

 Optimization completed.
    -- Stationary point found.
 Normal termination of Gaussian 16 at Tue Sep 17 09:55:49 2024.

 ----------------------------------------------------------------------
 #p M062X/def2tzvp geom=check guess=read scf(xqc,tight) integral(grid=u
 ltrafine) scrf(SMD, solvent=1,4-Dioxane) polar prop=efg volume
 ----------------------------------------------------------------------

 ---
 spe
 ---
 Structure from the checkpoint file:  "smiles_00107_conf_2.chk"
 Charge =  0 Multiplicity = 1

 SCF Done:  E(RM062X) =  -3480.00555213     A.U. after   12 cycles

  Exact polarizability:     165.320       0.001     137.983      -0.000       0.906      79.841
 Approx polarizability:     176.605       0.001     151.216      -0.000       1.481      99.269

 Normal termination of Gaussian 16 at Tue Sep 17 10:44:18 2024.
 Gaussian 16:  ES64L-G16RevC.02  7-Dec-2021

 ----------------------------------------------------------------------
 #p M062X/def2tzvp geom=check guess=read scf(xqc,tight) integral(grid=u
 ltrafine) scrf(SMD, solvent=1,4-Dioxane) nmr=giao
 ----------------------------------------------------------------------

 ---
 spe
 ---
 Structure from the checkpoint file:  "smiles_00107_conf_2.chk"
 Charge =  0 Multiplicity = 1

                         Standard orientation:
 ---------------------------------------------------------------------
 Center     Atomic      Atomic             Coordinates (Angstroms)
 Number     Number       Type             X           Y           Z
 ---------------------------------------------------------------------
      1          9           0        1.704859    2.918667   -1.266872
      2          6           0        1.489792    2.508220    0.002185
      3          9           0        2.696154    2.402082    0.596717
      4          9           0        0.805604    3.488949    0.627426
      5          6           0        0.740159    1.201768    0.033273
      6          6           0       -0.654890    1.212684    0.035299
      7          6           0       -1.337011   -0.000080   -0.000000
      8         35           0       -3.240390   -0.000179   -0.000001
      9          6           0       -0.654755   -1.212760   -0.035293
     10          6           0        0.740298   -1.201684   -0.033274
     11          6           0        1.490088   -2.508048   -0.002186
     12          9           0        2.696444   -2.401782   -0.596695
     13          9           0        0.806032   -3.488863   -0.627443
     14          9           0        1.705180   -2.918479    1.266872
     15          6           0        1.445212    0.000081   -0.000004
     16          1           0       -1.198066    2.148428    0.068301
     17          1           0       -1.197809   -2.148576   -0.068281
     18          1           0        2.527704    0.000146   -0.000012
 ---------------------------------------------------------------------

 SCF Done:  E(RM062X) =  -3480.00555213     A.U. after    1 cycles

      1  F    Isotropic =   225.4006   Anisotropy =   148.5073

      2  C    Isotropic =    51.0660   Anisotropy =    12.5972

      3  F    Isotropic =   249.8022   Anisotropy =   137.8840

      4  F    Isotropic =   249.9452   Anisotropy =   137.6182

      5  C    Isotropic =    28.9532   Anisotropy =   187.2068

      6  C    Isotropic =    29.1605   Anisotropy =   195.5886

      7  C    Isotropic =    21.9204   Anisotropy =   155.7011

      8  Br   Isotropic =  2026.7869   Anisotropy =  1335.9983

      9  C    Isotropic =    29.1614   Anisotropy =   195.5881

     10  C    Isotropic =    28.9532   Anisotropy =   187.2066

     11  C    Isotropic =    51.0659   Anisotropy =    12.5975

     12  F    Isotropic =   249.8033   Anisotropy =   137.8811

     13  F    Isotropic =   249.9431   Anisotropy =   137.6239

     14  F    Isotropic =   225.3995   Anisotropy =   148.5087

     15  C    Isotropic =    40.5775   Anisotropy =   219.5744

     16  H    Isotropic =    23.0814   Anisotropy =    13.6915

     17  H    Isotropic =    23.0815   Anisotropy =    13.6912

     18  H    Isotropic =    23.1208   Anisotropy =    12.2295

 The electronic state is 1-A.
 Alpha  occ. eigenvalues -- -485.39380 -63.37852 -57.19804 -57.19558 -57.19550
 Alpha  occ. eigenvalues --  -25.29297 -25.29297 -25.29277 -25.29277 -25.28981
 Alpha  occ. eigenvalues --  -25.28981 -10.81490 -10.81490 -10.63262 -10.60056
 Alpha  occ. eigenvalues --  -10.60055 -10.59170 -10.59168 -10.59042  -9.04495
 Alpha  occ. eigenvalues --   -6.86926  -6.86016  -6.85987  -2.90303  -2.89975
 Alpha  occ. eigenvalues --   -2.89944  -2.89096  -2.89095  -1.47373  -1.47370
 Alpha  occ. eigenvalues --   -1.38582  -1.38580  -1.38251  -1.38251  -1.02262
 Alpha  occ. eigenvalues --   -0.93802  -0.93078  -0.85676  -0.82980  -0.82503
 Alpha  occ. eigenvalues --   -0.75192  -0.74304  -0.70466  -0.70284  -0.70229
 Alpha  occ. eigenvalues --   -0.70183  -0.67227  -0.63915  -0.61202  -0.59479
 Alpha  occ. eigenvalues --   -0.58698  -0.58428  -0.58237  -0.56923  -0.54777
 Alpha  occ. eigenvalues --   -0.54657  -0.54578  -0.53719  -0.52762  -0.52725
 Alpha  occ. eigenvalues --   -0.52101  -0.50518  -0.50359  -0.49150  -0.45302
 Alpha  occ. eigenvalues --   -0.44085  -0.40462  -0.36931  -0.35684  -0.32573
 Alpha virt. eigenvalues --   -0.03368  -0.02499   0.01929   0.09295   0.11098
 Alpha virt. eigenvalues --    0.11272   0.12076   0.13180   0.14828   0.15183
 Alpha virt. eigenvalues --    0.16492   0.17293   0.17498   0.19319   0.20571

 Mulliken charges:
               1
     1  F   -0.176429
     2  C    0.510973
     3  F   -0.179759
     4  F   -0.180640
     5  C    0.020151
     6  C   -0.190847
     7  C    0.066361
     8  Br  -0.070271
     9  C   -0.190846
    10  C    0.020150
    11  C    0.510973
    12  F   -0.179758
    13  F   -0.180643
    14  F   -0.176430
    15  C   -0.224091
    16  H    0.206081
    17  H    0.206081
    18  H    0.208944
 Sum of Mulliken charges =  -0.00000

 Dipole moment (field-independent basis, Debye):
    X=             -1.3012    Y=             -0.0000    Z=              0.0000  Tot=              1.3012
 Quadrupole moment (field-independent basis, Debye-Ang):
   XX=            -96.2085   YY=           -102.4358   ZZ=            -97.4016
   XY=              0.0004   XZ=             -0.0001   YZ=              0.4540

 Normal termination of Gaussian 16 at Tue Sep 17 11:02:07 2024.
