 Gaussian 16, Revision C.02,

 ----------------------------------------------------------------------
 #p B3LYP/6-31G(d,p) EmpiricalDispersion=GD3BJ opt freq scf(xqc,tight)
 integral(grid=ultrafine)
 ----------------------------------------------------------------------

 ----------------------------------
 opt-freq conformers_unique/conf_ab
 ----------------------------------
 Symbolic Z-matrix:
 Charge =  0 Multiplicity = 1

 SCF Done:  E(RB3LYP) =  -3477.46421444     A.U. after   13 cycles
 SCF Done:  E(RB3LYP) =  -3477.46535852     A.U. after   11 cycles
 SCF Done:  E(RB3LYP) =  -3477.46558613     A.U. after   10 cycles
 SCF Done:  E(RB3LYP) =  -3477.46560489     A.U. after    9 cycles
 SCF Done:  E(RB3LYP) =  -3477.46562135     A.U. after    9 cycles
 SCF Done:  E(RB3LYP) =  -3477.46566353     A.U. after   12 cycles
 SCF Done:  E(RB3LYP) =  -3477.46569792     A.U. after   11 cycles
 SCF Done:  E(RB3LYP) =  -3477.46577383     A.U. after   12 cycles
 SCF Done:  E(RB3LYP) =  -3477.46580413     A.U. after   11 cycles
 SCF Done:  E(RB3LYP) =  -3477.46581804     A.U. after   10 cycles
 SCF Done:  E(RB3LYP) =  -3477.46584249     A.U. after   10 cycles
 SCF Done:  E(RB3LYP) =  -3477.46584970     A.U. after   11 cycles
 SCF Done:  E(RB3LYP) =  -3477.46585115     A.U. after    9 cycles
 SCF Done:  E(RB3LYP) =  -3477.46585298     A.U. after   10 cycles
 SCF Done:  E(RB3LYP) =  -3477.46585321     A.U. after    7 cycles
 SCF Done:  E(RB3LYP) =  -3477.46585325     A.U. after    7 cycles
 SCF Done:  E(RB3LYP) =  -3477.46585325     A.U. after    6 cycles
 Optimization completed.
    -- Stationary point found.
 Normal termination of Gaussian 16 at Tue Sep 17 09:53:10 2024.

 ----------------------------------------------------------------------
 #P Geom=AllCheck Guess=TCheck SCRF=Check GenChk RB3LYP/6-31G(d,p) Freq
 ----------------------------------------------------------------------

 Structure from the checkpoint file:  "smiles_00107_conf_1.chk"
 ----------------------------------
 opt-freq conformers_unique/conf_ab
 ----------------------------------
 Charge =  0 Multiplicity = 1

 SCF Done:  E(RB3LYP) =  -3477.46585325     A.U. after    1 cycles

                      1                      2                      3
                      A                      A                      A
 Frequencies --     12.9450                15.5440                82.8407
 Red. masses --     18.8679                19.6064                13.6662
 Frc consts  --      0.0019                 0.0028                 0.0553
 IR Inten    --      0.0080                 0.0293                 0.9711

                      4                      5                      6
                      A                      A                      A
 Frequencies --    110.0893               117.7088               146.2544
 Red. masses --     18.2803                21.3400                 7.5669
 Frc consts  --      0.1305                 0.1742                 0.0954
 IR Inten    --      0.8774                 0.1496                 0.0464

                      7                      8                      9
                      A                      A                      A
 Frequencies --    184.0509               252.6769               264.5043
 Red. masses --      5.0684                24.5064                12.3992
 Frc consts  --      0.1012                 0.9219                 0.5111
 IR Inten    --      0.0610                 0.0105                 0.8994

                     10                     11                     12
                      A                      A                      A
 Frequencies --    294.9398               312.2875               345.6507
 Red. masses --     15.8765                 5.4166                 8.9358
 Frc consts  --      0.8137                 0.3112                 0.6290
 IR Inten    --      1.2754                 0.2732                 0.0500

                     13                     14                     15
                      A                      A                      A
 Frequencies --    373.7156               417.8969               451.1708
 Red. masses --      7.9122                10.2343                 8.4651
 Frc consts  --      0.6511                 1.0530                 1.0152
 IR Inten    --      5.0877                 6.0709                 2.4658

                     16                     17                     18
                      A                      A                      A
 Frequencies --    497.3003               507.3969               567.0613
 Red. masses --     12.0442                 9.8213                15.0636
 Frc consts  --      1.7550                 1.4898                 2.8539
 IR Inten    --      0.2104                 2.8483                 0.0024

                     19                     20                     21
                      A                      A                      A
 Frequencies --    601.2328               605.7819               674.8442
 Red. masses --      6.9123                 8.6237                 7.7946
 Frc consts  --      1.4722                 1.8646                 2.0915
 IR Inten    --      0.2933                 0.6101                 8.4198

                     22                     23                     24
                      A                      A                      A
 Frequencies --    680.8196               702.2449               717.2728
 Red. masses --     12.6990                13.4173                 2.5471
 Frc consts  --      3.4681                 3.8984                 0.7721
 IR Inten    --     32.2343                40.5173                11.5125

                     25                     26                     27
                      A                      A                      A
 Frequencies --    800.9011               859.7416               913.3912
 Red. masses --     12.3583                12.2687                 1.5833
 Frc consts  --      4.6705                 5.3430                 0.7783
 IR Inten    --     41.1073                18.6451                41.9261

                     28                     29                     30
                      A                      A                      A
 Frequencies --    936.0072               943.4377              1017.7520
 Red. masses --      1.3576                 1.3776                 6.3956
 Frc consts  --      0.7008                 0.7225                 3.9032
 IR Inten    --      0.7699                 0.4697                 0.0240

                     31                     32                     33
                      A                      A                      A
 Frequencies --   1119.7703              1124.7525              1131.6774
 Red. masses --      5.7862                 1.8134                 2.0386
 Frc consts  --      4.2747                 1.3516                 1.5382
 IR Inten    --     11.8587                18.2882                10.6570

                     34                     35                     36
                      A                      A                      A
 Frequencies --   1195.8030              1199.7424              1219.4811
 Red. masses --     12.8776                12.7763                 8.6839
 Frc consts  --     10.8494                10.8351                 7.6088
 IR Inten    --      4.4748               502.1210                93.2488

                     37                     38                     39
                      A                      A                      A
 Frequencies --   1226.0432              1292.8726              1297.0974
 Red. masses --      6.0516                 2.5141                 1.6542
 Frc consts  --      5.3596                 2.4759                 1.6397
 IR Inten    --    242.2386               421.9010               181.2842

                     40                     41                     42
                      A                      A                      A
 Frequencies --   1366.0333              1369.3942              1487.6337
 Red. masses --      5.5134                 5.8747                 4.2300
 Frc consts  --      6.0617                 6.4907                 5.5155
 IR Inten    --      2.4271               333.4428                 3.1722

                     43                     44                     45
                      A                      A                      A
 Frequencies --   1488.8335              1643.1893              1667.3619
 Red. masses --      4.0152                 6.7438                 6.2789
 Frc consts  --      5.2439                10.7283                10.2847
 IR Inten    --      9.5157                10.0668                 5.9710

                     46                     47                     48
                      A                      A                      A
 Frequencies --   3238.5745              3238.7704              3240.9258
 Red. masses --      1.0918                 1.0926                 1.0917
 Frc consts  --      6.7471                 6.7528                 6.7560
 IR Inten    --      1.6513                 0.3540                 1.0264

 - Thermochemistry -
 -------------------
 Temperature   298.150 Kelvin.  Pressure   1.00000 Atm.
 Atom     1 has atomic number  9 and mass  18.99840

 Molecular mass:   291.93223 amu.
 Principal axes and moments of inertia in atomic units:
                           1         2         3
     Eigenvalues --  4730.396215219.271259310.01427
           X            1.00000   0.00002  -0.00015
           Y           -0.00002   1.00000   0.00000
           Z            0.00015  -0.00000   1.00000
 This molecule is an asymmetric top.
 Rotational symmetry number  1.
 Warning -- assumption of classical behavior for rotation
           may cause significant error
 Rotational temperatures (Kelvin)      0.01831     0.01660     0.00930
 Rotational constants (GHZ):           0.38152     0.34578     0.19385
 Zero-point vibrational energy     262911.8 (Joules/Mol)
                                   62.83742 (Kcal/Mol)
 Warning -- explicit consideration of  20 degrees of freedom as
           vibrations may cause significant error
 Vibrational temperatures:     18.62    22.36   119.19   158.39   169.36
          (Kelvin)            210.43   264.81   363.55   380.56   424.35
                              449.31   497.31   537.69   601.26   649.13
                              715.50   730.03   815.87   865.04   871.59
                              970.95   979.55  1010.37  1032.00  1152.32
                             1236.98  1314.17  1346.71  1357.40  1464.32
                             1611.10  1618.27  1628.23  1720.49  1726.16
                             1754.56  1764.00  1860.16  1866.23  1965.42
                             1970.25  2140.37  2142.10  2364.18  2398.96
                             4659.59  4659.87  4662.97

 Zero-point correction=                           0.100138 (Hartree/Particle)
 Thermal correction to Energy=                    0.113161
 Thermal correction to Enthalpy=                  0.114106
 Thermal correction to Gibbs Free Energy=         0.056185
 Sum of electronic and zero-point Energies=          -3477.365715
 Sum of electronic and thermal Energies=             -3477.352692
 Sum of electronic and thermal Enthalpies=           -3477.351748
 Sum of electronic and thermal Free Energies=        -3477.409668

                     E (Thermal)             CV                S
                      KCal/Mol        Cal/Mol-Kelvin    Cal/Mol-Kelvin
 Total                   71.010             46.569            121.905
 Electronic               0.000              0.000              0.000
 Translational            0.889              2.981             42.911
 Rotational               0.889              2.981             33.796
 Vibrational             69.232             40.607             45.197
 Vibration     1          0.593              1.987              7.498
 Vibration     2          0.593              1.986              7.135
 Vibration     3          0.600              1.961              3.822
 Vibration     4          0.606              1.941              3.267
 Vibration     5          0.608              1.935              3.138
 Vibration     6          0.617              1.907              2.720
 Vibration     7          0.631              1.862              2.287
 Vibration     8          0.664              1.758              1.712
 Vibration     9          0.671              1.738              1.632
 Vibration    10          0.689              1.683              1.445
 Vibration    11          0.701              1.650              1.350
 Vibration    12          0.724              1.584              1.186
 Vibration    13          0.745              1.526              1.065
 Vibration    14          0.781              1.431              0.899
 Vibration    15          0.810              1.358              0.792
 Vibration    16          0.853              1.256              0.665
 Vibration    17          0.863              1.234              0.640
 Vibration    18          0.923              1.103              0.510
 Vibration    19          0.959              1.029              0.448
 Vibration    20          0.964              1.020              0.440

 Optimization completed.
    -- Stationary point found.
 Normal termination of Gaussian 16 at Tue Sep 17 09:54:35 2024.

 ----------------------------------------------------------------------
 #p M062X/def2tzvp geom=check guess=read scf(xqc,tight) integral(grid=u
 ltrafine) scrf(SMD, solvent=1,4-Dioxane) polar prop=efg volume
 ----------------------------------------------------------------------

 ---
 spe
 ---
 Structure from the checkpoint file:  "smiles_00107_conf_1.chk"
 Charge =  0 Multiplicity = 1

 SCF Done:  E(RM062X) =  -3480.00551625     A.U. after   12 cycles

  Exact polarizability:     165.323      -0.001     137.977      -0.735       0.000      79.818
 Approx polarizability:     176.598      -0.001     151.231      -1.027       0.000      99.239

 Normal termination of Gaussian 16 at Tue Sep 17 10:42:17 2024.
 Gaussian 16:  ES64L-G16RevC.02  7-Dec-2021

 ----------------------------------------------------------------------
 #p M062X/def2tzvp geom=check guess=read scf(xqc,tight) integral(grid=u
 ltrafine) scrf(SMD, solvent=1,4-Dioxane) nmr=giao
 ----------------------------------------------------------------------

 ---
 spe
 ---
 Structure from the checkpoint file:  "smiles_00107_conf_1.chk"
 Charge =  0 Multiplicity = 1

                         Standard orientation:
 ---------------------------------------------------------------------
 Center     Atomic      Atomic             Coordinates (Angstroms)
 Number     Number       Type             X           Y           Z
 ---------------------------------------------------------------------
      1          9           0        0.793307    3.503057   -0.585802
      2          6           0        1.490406    2.507543    0.000654
      3          9           0        2.682934    2.414942   -0.623292
      4          9           0        1.734372    2.887969    1.273792
      5          6           0        0.739346    1.202202   -0.043850
      6          6           0       -0.655536    1.213289   -0.022596
      7          6           0       -1.337688    0.000073   -0.012330
      8         35           0       -3.241002    0.000187    0.004875
      9          6           0       -0.655678   -1.213218   -0.022611
     10          6           0        0.739208   -1.202288   -0.043861
     11          6           0        1.490109   -2.507715    0.000655
     12          9           0        1.733895   -2.888225    1.273802
     13          9           0        2.682701   -2.415229   -0.623186
     14          9           0        0.792923   -3.503109   -0.585908
     15          6           0        1.444089   -0.000085   -0.055566
     16          1           0       -1.198732    2.149589   -0.024652
     17          1           0       -1.198973   -2.149460   -0.024684
     18          1           0        2.526066   -0.000148   -0.088908
 ---------------------------------------------------------------------

 SCF Done:  E(RM062X) =  -3480.00551625     A.U. after    1 cycles

      1  F    Isotropic =   250.0043   Anisotropy =   137.7164

      2  C    Isotropic =    51.1035   Anisotropy =    12.5685

      3  F    Isotropic =   249.8194   Anisotropy =   137.7291

      4  F    Isotropic =   225.4296   Anisotropy =   148.5668

      5  C    Isotropic =    28.8951   Anisotropy =   187.0939

      6  C    Isotropic =    29.2100   Anisotropy =   195.6186

      7  C    Isotropic =    21.9558   Anisotropy =   155.6326

      8  Br   Isotropic =  2026.6654   Anisotropy =  1336.3601

      9  C    Isotropic =    29.2103   Anisotropy =   195.6199

     10  C    Isotropic =    28.8947   Anisotropy =   187.0953

     11  C    Isotropic =    51.1033   Anisotropy =    12.5687

     12  F    Isotropic =   225.4293   Anisotropy =   148.5649

     13  F    Isotropic =   249.8239   Anisotropy =   137.7246

     14  F    Isotropic =   250.0011   Anisotropy =   137.7198

     15  C    Isotropic =    40.5843   Anisotropy =   219.5028

     16  H    Isotropic =    23.0835   Anisotropy =    13.6900

     17  H    Isotropic =    23.0835   Anisotropy =    13.6899

     18  H    Isotropic =    23.1202   Anisotropy =    12.2175

 The electronic state is 1-A.
 Alpha  occ. eigenvalues -- -485.39379 -63.37851 -57.19803 -57.19557 -57.19549
 Alpha  occ. eigenvalues --  -25.29298 -25.29298 -25.29278 -25.29278 -25.28984
 Alpha  occ. eigenvalues --  -25.28983 -10.81493 -10.81492 -10.63261 -10.60059
 Alpha  occ. eigenvalues --  -10.60058 -10.59169 -10.59167 -10.59043  -9.04494
 Alpha  occ. eigenvalues --   -6.86925  -6.86014  -6.85986  -2.90302  -2.89974
 Alpha  occ. eigenvalues --   -2.89943  -2.89094  -2.89094  -1.47376  -1.47373
 Alpha  occ. eigenvalues --   -1.38583  -1.38581  -1.38254  -1.38253  -1.02261
 Alpha  occ. eigenvalues --   -0.93801  -0.93077  -0.85676  -0.82981  -0.82504
 Alpha  occ. eigenvalues --   -0.75192  -0.74304  -0.70465  -0.70301  -0.70221
 Alpha  occ. eigenvalues --   -0.70182  -0.67231  -0.63920  -0.61213  -0.59471
 Alpha  occ. eigenvalues --   -0.58629  -0.58441  -0.58294  -0.56921  -0.54780
 Alpha  occ. eigenvalues --   -0.54656  -0.54586  -0.53715  -0.52763  -0.52727
 Alpha  occ. eigenvalues --   -0.52102  -0.50524  -0.50337  -0.49156  -0.45312
 Alpha  occ. eigenvalues --   -0.44084  -0.40462  -0.36931  -0.35681  -0.32572
 Alpha virt. eigenvalues --   -0.03360  -0.02508   0.01927   0.09275   0.11112
 Alpha virt. eigenvalues --    0.11395   0.11954   0.13247   0.14858   0.15201
 Alpha virt. eigenvalues --    0.16532   0.17160   0.17542   0.19272   0.20542

 Mulliken charges:
               1
     1  F   -0.180652
     2  C    0.510675
     3  F   -0.179717
     4  F   -0.176365
     5  C    0.018084
     6  C   -0.189649
     7  C    0.066065
     8  Br  -0.070332
     9  C   -0.189655
    10  C    0.018090
    11  C    0.510674
    12  F   -0.176364
    13  F   -0.179715
    14  F   -0.180653
    15  C   -0.222046
    16  H    0.206026
    17  H    0.206027
    18  H    0.209507
 Sum of Mulliken charges =  -0.00000

 Dipole moment (field-independent basis, Debye):
    X=             -1.3043    Y=              0.0000    Z=             -0.1736  Tot=              1.3158
 Quadrupole moment (field-independent basis, Debye-Ang):
   XX=            -96.2210   YY=           -102.4109   ZZ=            -97.4016
   XY=             -0.0006   XZ=             -0.2928   YZ=              0.0001

 Normal termination of Gaussian 16 at Tue Sep 17 11:00:11 2024.
