 Gaussian 16, Revision C.02,

 ----------------------------------------------------------------------
 #p B3LYP/6-31G(d,p) EmpiricalDispersion=GD3BJ opt freq scf(xqc,tight)
 integral(grid=ultrafine)
 ----------------------------------------------------------------------

 ----------------------------------
 opt-freq conformers_unique/conf_aa
 ----------------------------------
 Symbolic Z-matrix:
 Charge =  0 Multiplicity = 1

 SCF Done:  E(RB3LYP) =  -2989.08215122     A.U. after   15 cycles
 SCF Done:  E(RB3LYP) =  -2989.08455197     A.U. after   12 cycles
 SCF Done:  E(RB3LYP) =  -2989.08476657     A.U. after   11 cycles
 SCF Done:  E(RB3LYP) =  -2989.08480927     A.U. after   10 cycles
 SCF Done:  E(RB3LYP) =  -2989.08481514     A.U. after    9 cycles
 Optimization completed.
    -- Stationary point found.
 Normal termination of Gaussian 16 at Tue Sep 17 09:52:10 2024.

 ----------------------------------------------------------------------
 #P Geom=AllCheck Guess=TCheck SCRF=Check GenChk RB3LYP/6-31G(d,p) Freq
 ----------------------------------------------------------------------

 Structure from the checkpoint file:  "smiles_00010_conf_0.chk"
 ----------------------------------
 opt-freq conformers_unique/conf_aa
 ----------------------------------
 Charge =  0 Multiplicity = 1

 SCF Done:  E(RB3LYP) =  -2989.08481514     A.U. after    1 cycles

                      1                      2                      3
                      A                      A                      A
 Frequencies --     97.9323               172.6258               176.8628
 Red. masses --      4.9991                 5.7512                 9.0961
 Frc consts  --      0.0282                 0.1010                 0.1676
 IR Inten    --      0.6313                 1.9394                 0.8932

                      4                      5                      6
                      A                      A                      A
 Frequencies --    234.3202               297.6853               416.3261
 Red. masses --      4.8206                15.3836                 5.2098
 Frc consts  --      0.1559                 0.8032                 0.5320
 IR Inten    --      0.9395                 2.2729                 0.6395

                      7                      8                      9
                      A                      A                      A
 Frequencies --    421.2649               461.1044               526.8924
 Red. masses --      3.6734                 4.7301                 9.0254
 Frc consts  --      0.3841                 0.5925                 1.4763
 IR Inten    --      0.1540                 0.0204                 2.5941

                     10                     11                     12
                      A                      A                      A
 Frequencies --    532.8570               572.8574               660.6434
 Red. masses --      8.4884                 3.7924                 5.2642
 Frc consts  --      1.4200                 0.7333                 1.3537
 IR Inten    --      5.1077                14.2609                 0.2186

                     13                     14                     15
                      A                      A                      A
 Frequencies --    689.6264               776.8261               806.4828
 Red. masses --      6.9084                 1.3292                 3.2531
 Frc consts  --      1.9358                 0.4726                 1.2466
 IR Inten    --     19.7180                35.9218                 4.0483

                     16                     17                     18
                      A                      A                      A
 Frequencies --    810.7748               867.7294               893.0154
 Red. masses --      7.5427                 5.6206                 1.4607
 Frc consts  --      2.9213                 2.4934                 0.6863
 IR Inten    --      3.5910                16.8527                 0.9091

                     19                     20                     21
                      A                      A                      A
 Frequencies --    946.9341               981.6785               987.9218
 Red. masses --      1.4319                 1.3617                 6.8013
 Frc consts  --      0.7565                 0.7732                 3.9110
 IR Inten    --      5.8647                 2.2344                46.5479

                     22                     23                     24
                      A                      A                      A
 Frequencies --   1009.8483              1014.3979              1055.7467
 Red. masses --      7.6960                 1.3098                 2.1862
 Frc consts  --      4.6241                 0.7941                 1.4357
 IR Inten    --      8.6910                 0.0006                 1.5773

                     25                     26                     27
                      A                      A                      A
 Frequencies --   1168.6291              1192.2749              1261.3052
 Red. masses --      1.4658                 1.1508                 1.7474
 Frc consts  --      1.1795                 0.9639                 1.6379
 IR Inten    --      4.1275                 4.9029                 7.8139

                     28                     29                     30
                      A                      A                      A
 Frequencies --   1281.6703              1311.1968              1343.1831
 Red. masses --      2.5175                 2.7216                 3.8177
 Frc consts  --      2.4365                 2.7568                 4.0581
 IR Inten    --     79.2865                70.6878                14.5242

                     31                     32                     33
                      A                      A                      A
 Frequencies --   1408.6664              1432.9088              1472.1579
 Red. masses --      3.4378                 4.5060                 2.4013
 Frc consts  --      4.0193                 5.4510                 3.0663
 IR Inten    --      8.1766                22.6055                 0.7963

                     34                     35                     36
                      A                      A                      A
 Frequencies --   1525.7712              1598.8796              1621.0610
 Red. masses --      2.6793                 6.6780                 6.1690
 Frc consts  --      3.6750                10.0585                 9.5513
 IR Inten    --     13.4683                36.9369                 5.7854

                     37                     38                     39
                      A                      A                      A
 Frequencies --   1673.6233              3171.8489              3191.1136
 Red. masses --      5.9580                 1.0909                 1.0867
 Frc consts  --      9.8326                 6.4665                 6.5200
 IR Inten    --      0.6929                11.7759                 0.2893

                     40                     41                     42
                      A                      A                      A
 Frequencies --   3200.9343              3213.0912              3230.8239
 Red. masses --      1.0908                 1.0959                 1.0940
 Frc consts  --      6.5847                 6.6662                 6.7281
 IR Inten    --     10.2717                14.4135                 2.3404

 - Thermochemistry -
 -------------------
 Temperature   298.150 Kelvin.  Pressure   1.00000 Atm.
 Atom     1 has atomic number 35 and mass  78.91834

 Molecular mass:   207.96361 amu.
 Principal axes and moments of inertia in atomic units:
                           1         2         3
     Eigenvalues --  1252.337382931.990724184.32810
           X            0.99953   0.03062  -0.00004
           Y           -0.03062   0.99953   0.00005
           Z            0.00004  -0.00005   1.00000
 This molecule is an asymmetric top.
 Rotational symmetry number  1.
 Warning -- assumption of classical behavior for rotation
           may cause significant error
 Rotational temperatures (Kelvin)      0.06916     0.02954     0.02070
 Rotational constants (GHZ):           1.44110     0.61553     0.43131
 Zero-point vibrational energy     297340.8 (Joules/Mol)
                                   71.06615 (Kcal/Mol)
 Warning -- explicit consideration of  11 degrees of freedom as
           vibrations may cause significant error
 Vibrational temperatures:    140.90   248.37   254.47   337.13   428.30
          (Kelvin)            599.00   606.11   663.43   758.08   766.66
                              824.21   950.52   992.22  1117.68  1160.35
                             1166.52  1248.47  1284.85  1362.43  1412.42
                             1421.40  1452.95  1459.49  1518.98  1681.40
                             1715.42  1814.74  1844.04  1886.52  1932.54
                             2026.76  2061.64  2118.11  2195.24  2300.43
                             2332.35  2407.97  4563.58  4591.30  4605.43
                             4622.92  4648.43

 Zero-point correction=                           0.113251 (Hartree/Particle)
 Thermal correction to Energy=                    0.121313
 Thermal correction to Enthalpy=                  0.122257
 Thermal correction to Gibbs Free Energy=         0.078913
 Sum of electronic and zero-point Energies=          -2988.971564
 Sum of electronic and thermal Energies=             -2988.963502
 Sum of electronic and thermal Enthalpies=           -2988.962558
 Sum of electronic and thermal Free Energies=        -2989.005902

                     E (Thermal)             CV                S
                      KCal/Mol        Cal/Mol-Kelvin    Cal/Mol-Kelvin
 Total                   76.125             31.351             91.226
 Electronic               0.000              0.000              0.000
 Translational            0.889              2.981             41.901
 Rotational               0.889              2.981             31.108
 Vibrational             74.348             25.389             18.217
 Vibration     1          0.603              1.951              3.495
 Vibration     2          0.626              1.876              2.407
 Vibration     3          0.628              1.871              2.361
 Vibration     4          0.654              1.788              1.846
 Vibration     5          0.691              1.678              1.430
 Vibration     6          0.780              1.435              0.905
 Vibration     7          0.784              1.424              0.888
 Vibration     8          0.819              1.336              0.763
 Vibration     9          0.882              1.190              0.594
 Vibration    10          0.888              1.177              0.581
 Vibration    11          0.929              1.090              0.499

 Optimization completed.
    -- Stationary point found.
 Normal termination of Gaussian 16 at Tue Sep 17 09:53:14 2024.

 ----------------------------------------------------------------------
 #p M062X/def2tzvp geom=check guess=read scf(xqc,tight) integral(grid=u
 ltrafine) scrf(SMD, solvent=1,4-Dioxane) polar prop=efg volume
 ----------------------------------------------------------------------

 ---
 spe
 ---
 Structure from the checkpoint file:  "smiles_00010_conf_0.chk"
 Charge =  0 Multiplicity = 1

 SCF Done:  E(RM062X) =  -2991.51494812     A.U. after   13 cycles

  Exact polarizability:     190.122       5.455     172.420       0.005      -0.005      72.961
 Approx polarizability:     206.617       4.767     206.137       0.005      -0.005      93.271

 Normal termination of Gaussian 16 at Tue Sep 17 10:23:31 2024.
 Gaussian 16:  ES64L-G16RevC.02  7-Dec-2021

 ----------------------------------------------------------------------
 #p M062X/def2tzvp geom=check guess=read scf(xqc,tight) integral(grid=u
 ltrafine) scrf(SMD, solvent=1,4-Dioxane) nmr=giao
 ----------------------------------------------------------------------

 ---
 spe
 ---
 Structure from the checkpoint file:  "smiles_00010_conf_0.chk"
 Charge =  0 Multiplicity = 1

                         Standard orientation:
 ---------------------------------------------------------------------
 Center     Atomic      Atomic             Coordinates (Angstroms)
 Number     Number       Type             X           Y           Z
 ---------------------------------------------------------------------
      1         35           0        2.298308   -0.511545    0.000109
      2          6           0        0.678385    0.516850    0.000078
      3          7           0        0.842560    1.806651   -0.000025
      4          7           0       -0.253933    2.628632   -0.000164
      5          6           0       -1.449660    2.089788   -0.000180
      6          6           0       -1.707354    0.690871   -0.000102
      7          6           0       -3.007440    0.136470   -0.000138
      8          6           0       -3.167391   -1.232410   -0.000080
      9          6           0       -2.039188   -2.084462    0.000011
     10          6           0       -0.760858   -1.566800    0.000054
     11          6           0       -0.575873   -0.166875    0.000014
     12          1           0       -2.279700    2.793573   -0.000282
     13          1           0       -3.866575    0.800188   -0.000220
     14          1           0       -4.163137   -1.663853   -0.000106
     15          1           0       -2.183551   -3.159987    0.000048
     16          1           0        0.108088   -2.213402    0.000134
 ---------------------------------------------------------------------

 SCF Done:  E(RM062X) =  -2991.51494812     A.U. after    1 cycles

      1  Br   Isotropic =  2035.8632   Anisotropy =  1278.7964

      2  C    Isotropic =    -4.1025   Anisotropy =   107.5636

      3  N    Isotropic =  -213.8489   Anisotropy =   607.8554

      4  N    Isotropic =  -224.3721   Anisotropy =   631.6603

      5  C    Isotropic =     7.5925   Anisotropy =   193.2641

      6  C    Isotropic =    35.4595   Anisotropy =   237.2233

      7  C    Isotropic =    36.7063   Anisotropy =   205.6713

      8  C    Isotropic =    28.2337   Anisotropy =   226.9298

      9  C    Isotropic =    29.0021   Anisotropy =   229.1418

     10  C    Isotropic =    37.0413   Anisotropy =   205.4166

     11  C    Isotropic =    35.7747   Anisotropy =   225.9302

     12  H    Isotropic =    21.2208   Anisotropy =     9.8699

     13  H    Isotropic =    22.9571   Anisotropy =     7.1430

     14  H    Isotropic =    22.9003   Anisotropy =     6.9590

     15  H    Isotropic =    22.9355   Anisotropy =     7.7044

     16  H    Isotropic =    22.5205   Anisotropy =    13.7344

 The electronic state is 1-A.
 Alpha  occ. eigenvalues -- -485.38351 -63.36839 -57.18784 -57.18549 -57.18533
 Alpha  occ. eigenvalues --  -14.79631 -14.79578 -10.64901 -10.59728 -10.59065
 Alpha  occ. eigenvalues --  -10.58540 -10.57233 -10.57143 -10.57079 -10.57032
 Alpha  occ. eigenvalues --   -9.03484  -6.85897  -6.85025  -6.84974  -2.89273
 Alpha  occ. eigenvalues --   -2.88966  -2.88912  -2.88102  -2.88101  -1.13754
 Alpha  occ. eigenvalues --   -0.99469  -0.96949  -0.90165  -0.87455  -0.86391
 Alpha  occ. eigenvalues --   -0.75839  -0.74801  -0.70384  -0.63648  -0.61251
 Alpha  occ. eigenvalues --   -0.58803  -0.54017  -0.53202  -0.52858  -0.51200
 Alpha  occ. eigenvalues --   -0.49694  -0.45565  -0.45366  -0.43383  -0.41480
 Alpha  occ. eigenvalues --   -0.38391  -0.35765  -0.35153  -0.34148  -0.32882
 Alpha  occ. eigenvalues --   -0.30913
 Alpha virt. eigenvalues --   -0.04671  -0.03146   0.03100   0.03102   0.08007
 Alpha virt. eigenvalues --    0.09587   0.09832   0.10913   0.12136   0.13275
 Alpha virt. eigenvalues --    0.14749   0.17157   0.17876   0.18574   0.18647

 Mulliken charges:
               1
     1  Br  -0.078623
     2  C    0.104461
     3  N   -0.114578
     4  N   -0.147492
     5  C   -0.095350
     6  C    0.098962
     7  C   -0.184158
     8  C   -0.137275
     9  C   -0.142689
    10  C   -0.190240
    11  C    0.027273
    12  H    0.163009
    13  H    0.170934
    14  H    0.173980
    15  H    0.174917
    16  H    0.176868
 Sum of Mulliken charges =  -0.00000

 Dipole moment (field-independent basis, Debye):
    X=             -5.4503    Y=             -4.0604    Z=             -0.0000  Tot=              6.7965
 Quadrupole moment (field-independent basis, Debye-Ang):
   XX=            -63.5194   YY=            -77.9519   ZZ=            -78.2321
   XY=             -3.9051   XZ=              0.0008   YZ=             -0.0001

 Normal termination of Gaussian 16 at Tue Sep 17 10:37:50 2024.
