 Gaussian 16, Revision C.02,

 ----------------------------------------------------------------------
 #p B3LYP/gen pseudo=read EmpiricalDispersion=GD3BJ opt freq scf(xqc,ti
 ght) integral(grid=ultrafine)
 ----------------------------------------------------------------------

 ----------------------------------
 opt-freq conformers_unique/conf_aa
 ----------------------------------
 Symbolic Z-matrix:
 Charge =  0 Multiplicity = 1

 SCF Done:  E(RB3LYP) =  -470.931578310     A.U. after   15 cycles
 SCF Done:  E(RB3LYP) =  -470.931885203     A.U. after   14 cycles
 SCF Done:  E(RB3LYP) =  -470.932674743     A.U. after   14 cycles
 SCF Done:  E(RB3LYP) =  -470.934035730     A.U. after   13 cycles
 SCF Done:  E(RB3LYP) =  -470.934103087     A.U. after   12 cycles
 SCF Done:  E(RB3LYP) =  -470.934111917     A.U. after    9 cycles
 SCF Done:  E(RB3LYP) =  -470.934116377     A.U. after    9 cycles
 SCF Done:  E(RB3LYP) =  -470.934118816     A.U. after    9 cycles
 SCF Done:  E(RB3LYP) =  -470.934119828     A.U. after    9 cycles
 SCF Done:  E(RB3LYP) =  -470.934119881     A.U. after    7 cycles
 Optimization completed.
    -- Stationary point found.
 Normal termination of Gaussian 16 at Tue Sep 17 09:58:50 2024.

 ------------------------------------------------------------------
 #P Geom=AllCheck Guess=TCheck SCRF=Check GenChk RB3LYP/ChkBas Freq
 ------------------------------------------------------------------

 Structure from the checkpoint file:  "smiles_00115_conf_0.chk"
 ----------------------------------
 opt-freq conformers_unique/conf_aa
 ----------------------------------
 Charge =  0 Multiplicity = 1

 SCF Done:  E(RB3LYP) =  -470.934119881     A.U. after    1 cycles

                      1                      2                      3
                      A                      A                      A
 Frequencies --     29.7773                89.3917               104.9461
 Red. masses --      6.1482                 3.7157                 3.5758
 Frc consts  --      0.0032                 0.0175                 0.0232
 IR Inten    --      2.3370                 0.6811                 0.7256

                      4                      5                      6
                      A                      A                      A
 Frequencies --    124.5999               151.1445               192.3888
 Red. masses --      1.2323                 4.0544                 7.3932
 Frc consts  --      0.0113                 0.0546                 0.1612
 IR Inten    --      0.5891                 2.4868                 1.2677

                      7                      8                      9
                      A                      A                      A
 Frequencies --    237.2957               253.1179               340.0882
 Red. masses --      7.1226                 4.9365                 4.8124
 Frc consts  --      0.2363                 0.1863                 0.3279
 IR Inten    --      1.4525                 1.1242                17.9214

                     10                     11                     12
                      A                      A                      A
 Frequencies --    376.5187               430.9108               471.6613
 Red. masses --      6.5371                 4.1234                 4.6325
 Frc consts  --      0.5460                 0.4511                 0.6072
 IR Inten    --      2.5197                 1.0197                 7.1757

                     13                     14                     15
                      A                      A                      A
 Frequencies --    536.2676               649.8087               700.5292
 Red. masses --      5.1423                 6.6560                 6.0248
 Frc consts  --      0.8713                 1.6559                 1.7420
 IR Inten    --      0.6946                 7.1770                17.2855

                     16                     17                     18
                      A                      A                      A
 Frequencies --    706.1357               758.5207               804.6035
 Red. masses --      5.6158                 1.6060                 2.6578
 Frc consts  --      1.6498                 0.5444                 1.0138
 IR Inten    --      9.7205                48.2229                 3.8043

                     19                     20                     21
                      A                      A                      A
 Frequencies --    847.6350               893.6078               975.7569
 Red. masses --      5.1139                 1.3819                 1.3782
 Frc consts  --      2.1648                 0.6502                 0.7731
 IR Inten    --      9.0037                 0.3396                 2.1164

                     22                     23                     24
                      A                      A                      A
 Frequencies --    999.5642              1005.1357              1025.8260
 Red. masses --      5.2184                 1.3967                 7.5882
 Frc consts  --      3.0719                 0.8314                 4.7047
 IR Inten    --     17.4952                 0.9738                43.7184

                     25                     26                     27
                      A                      A                      A
 Frequencies --   1078.4736              1142.9384              1165.1849
 Red. masses --      2.4719                 1.7150                 2.4295
 Frc consts  --      1.6940                 1.3199                 1.9434
 IR Inten    --     15.1341                 1.0942                70.7268

                     28                     29                     30
                      A                      A                      A
 Frequencies --   1178.4799              1194.2782              1222.2898
 Red. masses --      1.2786                 1.0907                 1.7056
 Frc consts  --      1.0462                 0.9165                 1.5013
 IR Inten    --      0.7736                 0.5578                22.6944

                     31                     32                     33
                      A                      A                      A
 Frequencies --   1289.4502              1330.0211              1342.2054
 Red. masses --      1.5150                 4.5360                 6.7546
 Frc consts  --      1.4841                 4.7276                 7.1695
 IR Inten    --     22.3147               292.4714               147.0256

                     34                     35                     36
                      A                      A                      A
 Frequencies --   1468.4663              1482.5992              1494.7302
 Red. masses --      1.9233                 1.3323                 1.0474
 Frc consts  --      2.4436                 1.7255                 1.3787
 IR Inten    --     28.0484                41.8994                 5.7343

                     37                     38                     39
                      A                      A                      A
 Frequencies --   1505.2198              1509.5494              1616.3276
 Red. masses --      1.4134                 1.5219                 5.6874
 Frc consts  --      1.8867                 2.0432                 8.7543
 IR Inten    --      4.1011                10.1922                10.8389

                     40                     41                     42
                      A                      A                      A
 Frequencies --   1644.3711              1799.0393              3068.9949
 Red. masses --      5.8989                11.6282                 1.0298
 Frc consts  --      9.3977                22.1739                 5.7145
 IR Inten    --     28.1246               238.1574                32.0681

                     43                     44                     45
                      A                      A                      A
 Frequencies --   3146.5678              3181.8028              3194.4239
 Red. masses --      1.1070                 1.1072                 1.0868
 Frc consts  --      6.4578                 6.6041                 6.5339
 IR Inten    --     17.8328                12.4180                 3.0283

                     46                     47                     48
                      A                      A                      A
 Frequencies --   3209.9846              3223.6453              3227.3384
 Red. masses --      1.0917                 1.0933                 1.0955
 Frc consts  --      6.6275                 6.6937                 6.7231
 IR Inten    --      9.5169                 2.9312                 7.7983

 - Thermochemistry -
 -------------------
 Temperature   298.150 Kelvin.  Pressure   1.00000 Atm.
 Atom     1 has atomic number  6 and mass  12.00000

 Molecular mass:   261.94500 amu.
 Principal axes and moments of inertia in atomic units:
                           1         2         3
     Eigenvalues --  2217.780942839.308394940.14719
           X            0.97397   0.22667   0.00307
           Y           -0.22668   0.97397   0.00271
           Z           -0.00238  -0.00334   0.99999
 This molecule is an asymmetric top.
 Rotational symmetry number  1.
 Warning -- assumption of classical behavior for rotation
           may cause significant error
 Rotational temperatures (Kelvin)      0.03905     0.03051     0.01753
 Rotational constants (GHZ):           0.81376     0.63563     0.36532
 Zero-point vibrational energy     349438.9 (Joules/Mol)
                                   83.51789 (Kcal/Mol)
 Warning -- explicit consideration of  13 degrees of freedom as
           vibrations may cause significant error
 Vibrational temperatures:     42.84   128.61   150.99   179.27   217.46
          (Kelvin)            276.80   341.42   364.18   489.31   541.73
                              619.98   678.62   771.57   934.93  1007.91
                             1015.97  1091.34  1157.65  1219.56  1285.70
                             1403.90  1438.15  1446.17  1475.93  1551.68
                             1644.43  1676.44  1695.57  1718.30  1758.60
                             1855.23  1913.60  1931.13  2112.80  2133.13
                             2150.58  2165.68  2171.90  2325.53  2365.88
                             2588.42  4415.60  4527.21  4577.90  4596.06
                             4618.45  4638.11  4643.42

 Zero-point correction=                           0.133094 (Hartree/Particle)
 Thermal correction to Energy=                    0.143580
 Thermal correction to Enthalpy=                  0.144524
 Thermal correction to Gibbs Free Energy=         0.094311
 Sum of electronic and zero-point Energies=           -470.801026
 Sum of electronic and thermal Energies=              -470.790540
 Sum of electronic and thermal Enthalpies=            -470.789596
 Sum of electronic and thermal Free Energies=         -470.839809

                     E (Thermal)             CV                S
                      KCal/Mol        Cal/Mol-Kelvin    Cal/Mol-Kelvin
 Total                   90.098             36.910            105.682
 Electronic               0.000              0.000              0.000
 Translational            0.889              2.981             42.588
 Rotational               0.889              2.981             31.809
 Vibrational             88.320             30.948             31.284
 Vibration     1          0.594              1.984              5.844
 Vibration     2          0.602              1.957              3.673
 Vibration     3          0.605              1.945              3.360
 Vibration     4          0.610              1.928              3.028
 Vibration     5          0.619              1.901              2.658
 Vibration     6          0.634              1.850              2.205
 Vibration     7          0.656              1.784              1.823
 Vibration     8          0.664              1.758              1.709
 Vibration     9          0.720              1.595              1.212
 Vibration    10          0.747              1.520              1.053
 Vibration    11          0.792              1.403              0.856
 Vibration    12          0.829              1.313              0.733
 Vibration    13          0.891              1.170              0.573

                           ! Non-Optimized Parameters !
 Normal termination of Gaussian 16 at Tue Sep 17 09:59:52 2024.

 ----------------------------------------------------------------------
 #p M062X/def2tzvp geom=check guess=read scf(xqc,tight) integral(grid=u
 ltrafine) scrf(SMD, solvent=1,4-Dioxane) polar prop=efg volume
 ----------------------------------------------------------------------

 ---
 spe
 ---
 Structure from the checkpoint file:  "smiles_00115_conf_0.chk"
 Charge =  0 Multiplicity = 1

 SCF Done:  E(RM062X) =  -757.139537666     A.U. after   22 cycles

  Exact polarizability:     192.789      11.626     167.625       1.495      -4.774      87.129
 Approx polarizability:     207.663       4.020     179.512       3.587      -7.819     111.857

 1\1\GINC-HPC-54-28\SP\RM062X\def2TZVP\C8H7I1O2\MANTIND\17-Sep-2024\0\\
 #p M062X/def2tzvp geom=check guess=read scf(xqc,tight) integral(grid=u
 ltrafine) scrf(SMD, solvent=1,4-Dioxane) polar prop=efg volume\\spe\\0
 ,1\C,0,0.0935002889,-3.4582312822,-0.4193401276\O,0,-0.1579183139,-2.0
 467303518,-0.4930321136\C,0,-1.2873116744,-1.6318435448,0.0978446402\O
 ,0,-2.0946377305,-2.3852595734,0.6064940563\C,0,-1.4929256016,-0.15087
 58776,0.012792196\C,0,-2.8414231899,0.2469397407,-0.0008323168\C,0,-3.
 2066660483,1.5824742481,-0.1050288448\C,0,-2.2140825715,2.55900188,-0.

 Normal termination of Gaussian 16 at Tue Sep 17 10:39:51 2024.
 Gaussian 16:  ES64L-G16RevC.02  7-Dec-2021

 ----------------------------------------------------------------------
 #p M062X/def2tzvp geom=check guess=read scf(xqc,tight) integral(grid=u
 ltrafine) scrf(SMD, solvent=1,4-Dioxane) nmr=giao
 ----------------------------------------------------------------------

 ---
 spe
 ---
 Structure from the checkpoint file:  "smiles_00115_conf_0.chk"
 Charge =  0 Multiplicity = 1

                         Standard orientation:
 ---------------------------------------------------------------------
 Center     Atomic      Atomic             Coordinates (Angstroms)
 Number     Number       Type             X           Y           Z
 ---------------------------------------------------------------------
      1          6           0        0.483320    3.438128    0.382341
      2          8           0        0.124936    2.050856    0.471868
      3          6           0       -1.023643    1.713237   -0.131103
      4          8           0       -1.764091    2.517467   -0.663162
      5          6           0       -1.341775    0.253428   -0.028508
      6          6           0       -2.716521   -0.041455   -0.030860
      7          6           0       -3.183108   -1.343948    0.086273
      8          6           0       -2.268344   -2.391196    0.190651
      9          6           0       -0.899853   -2.128633    0.164997
     10          6           0       -0.435334   -0.815368    0.058487
     11         53           0        1.700727   -0.620123   -0.079049
     12          1           0       -0.263890    4.057942    0.883712
     13          1           0        1.449929    3.520670    0.877715
     14          1           0        0.555876    3.747665   -0.662749
     15          1           0       -3.402115    0.792829   -0.127205
     16          1           0       -4.250128   -1.540764    0.092345
     17          1           0       -2.611942   -3.417127    0.281274
     18          1           0       -0.191494   -2.946446    0.221165
 ---------------------------------------------------------------------

 SCF Done:  E(RM062X) =  -757.139537666     A.U. after    1 cycles

      1  C    Isotropic =   131.3289   Anisotropy =    72.2887

      2  O    Isotropic =   123.6347   Anisotropy =   185.6832

      3  C    Isotropic =    -2.8601   Anisotropy =   112.3587

      4  O    Isotropic =  -145.4673   Anisotropy =   683.9404

      5  C    Isotropic =    25.8791   Anisotropy =   183.6258

      6  C    Isotropic =    26.1076   Anisotropy =   218.3590

      7  C    Isotropic =    35.7182   Anisotropy =   220.1825

      8  C    Isotropic =    28.9694   Anisotropy =   215.4367

      9  C    Isotropic =    23.1854   Anisotropy =   178.3108

     10  C    Isotropic =    25.4807   Anisotropy =   151.6421

     11  I    Isotropic =   430.3891   Anisotropy =    73.5474

     12  H    Isotropic =    27.9885   Anisotropy =     9.2267

     13  H    Isotropic =    27.9679   Anisotropy =     7.6372

     14  H    Isotropic =    27.9480   Anisotropy =     8.3827

     15  H    Isotropic =    22.7443   Anisotropy =     9.2432

     16  H    Isotropic =    23.6249   Anisotropy =     5.5964

     17  H    Isotropic =    23.5827   Anisotropy =     6.3089

     18  H    Isotropic =    23.3311   Anisotropy =    13.7165

 The electronic state is 1-A.
 Alpha  occ. eigenvalues --  -19.67815 -19.62159 -10.68374 -10.61146 -10.58921
 Alpha  occ. eigenvalues --  -10.57917 -10.56283 -10.56188 -10.56176 -10.55640
 Alpha  occ. eigenvalues --   -7.10501  -5.09883  -5.08805  -5.08753  -2.06702
 Alpha  occ. eigenvalues --   -2.06277  -2.06238  -2.05338  -2.05335  -1.24023
 Alpha  occ. eigenvalues --   -1.14462  -0.98388  -0.88381  -0.86919  -0.82288
 Alpha  occ. eigenvalues --   -0.78059  -0.72079  -0.69535  -0.65664  -0.61653
 Alpha  occ. eigenvalues --   -0.57460  -0.57187  -0.56368  -0.53340  -0.51950
 Alpha  occ. eigenvalues --   -0.49530  -0.48308  -0.47097  -0.45225  -0.44007
 Alpha  occ. eigenvalues --   -0.42979  -0.39565  -0.38324  -0.36783  -0.35803
 Alpha  occ. eigenvalues --   -0.32558  -0.31609  -0.29731
 Alpha virt. eigenvalues --   -0.02560  -0.00878   0.00325   0.07497   0.08323
 Alpha virt. eigenvalues --    0.09302   0.11030   0.11811   0.13223   0.13802
 Alpha virt. eigenvalues --    0.14686   0.15302   0.15877   0.17008   0.17241

 Mulliken charges:
               1
     1  C   -0.261079
     2  O   -0.270224
     3  C    0.363353
     4  O   -0.369382
     5  C    0.054145
     6  C   -0.163643
     7  C   -0.155400
     8  C   -0.139716
     9  C   -0.170541
    10  C    0.000339
    11  I   -0.080349
    12  H    0.161021
    13  H    0.157981
    14  H    0.162926
    15  H    0.184972
    16  H    0.170239
    17  H    0.171675
    18  H    0.183684
 Sum of Mulliken charges =  -0.00000

 Dipole moment (field-independent basis, Debye):
    X=             -0.3085    Y=             -1.1521    Z=              1.0960  Tot=              1.6198
 Quadrupole moment (field-independent basis, Debye-Ang):
   XX=            -77.8989   YY=            -74.9876   ZZ=            -88.6300
   XY=             11.3421   XZ=             -2.5361   YZ=              2.8964

 1\1\GINC-HPC-54-28\SP\RM062X\def2TZVP\C8H7I1O2\MANTIND\17-Sep-2024\0\\
 #p M062X/def2tzvp geom=check guess=read scf(xqc,tight) integral(grid=u
 ltrafine) scrf(SMD, solvent=1,4-Dioxane) nmr=giao\\spe\\0,1\C,0,0.0935
 002889,-3.4582312822,-0.4193401276\O,0,-0.1579183139,-2.0467303518,-0.
 4930321136\C,0,-1.2873116744,-1.6318435448,0.0978446402\O,0,-2.0946377
 305,-2.3852595734,0.6064940563\C,0,-1.4929256016,-0.1508758776,0.01279
 2196\C,0,-2.8414231899,0.2469397407,-0.0008323168\C,0,-3.2066660483,1.
 5824742481,-0.1050288448\C,0,-2.2140825715,2.55900188,-0.1797932224\C,

 Normal termination of Gaussian 16 at Tue Sep 17 10:51:05 2024.
