 Gaussian 16, Revision C.02,

 ----------------------------------------------------------------------
 #p B3LYP/gen pseudo=read EmpiricalDispersion=GD3BJ opt freq scf(xqc,ti
 ght) integral(grid=ultrafine)
 ----------------------------------------------------------------------

 ----------------------------------
 opt-freq conformers_unique/conf_ad
 ----------------------------------
 Symbolic Z-matrix:
 Charge =  0 Multiplicity = 1

 SCF Done:  E(RB3LYP) =  -470.929069459     A.U. after   15 cycles
 SCF Done:  E(RB3LYP) =  -470.930654470     A.U. after   13 cycles
 SCF Done:  E(RB3LYP) =  -470.930235730     A.U. after   13 cycles
 SCF Done:  E(RB3LYP) =  -470.931006394     A.U. after   12 cycles
 SCF Done:  E(RB3LYP) =  -470.931291682     A.U. after   13 cycles
 SCF Done:  E(RB3LYP) =  -470.933109673     A.U. after   15 cycles
 SCF Done:  E(RB3LYP) =  -470.933675528     A.U. after   14 cycles
 SCF Done:  E(RB3LYP) =  -470.933433521     A.U. after   13 cycles
 SCF Done:  E(RB3LYP) =  -470.933884043     A.U. after   12 cycles
 SCF Done:  E(RB3LYP) =  -470.933895560     A.U. after   11 cycles
 SCF Done:  E(RB3LYP) =  -470.933898462     A.U. after   10 cycles
 SCF Done:  E(RB3LYP) =  -470.933899384     A.U. after    8 cycles
 SCF Done:  E(RB3LYP) =  -470.933900027     A.U. after    8 cycles
 SCF Done:  E(RB3LYP) =  -470.933900244     A.U. after    8 cycles
 SCF Done:  E(RB3LYP) =  -470.933900279     A.U. after    7 cycles
 Optimization completed.
    -- Stationary point found.
 Normal termination of Gaussian 16 at Tue Sep 17 09:59:34 2024.

 ------------------------------------------------------------------
 #P Geom=AllCheck Guess=TCheck SCRF=Check GenChk RB3LYP/ChkBas Freq
 ------------------------------------------------------------------

 Structure from the checkpoint file:  "smiles_00115_conf_3.chk"
 ----------------------------------
 opt-freq conformers_unique/conf_ad
 ----------------------------------
 Charge =  0 Multiplicity = 1

 SCF Done:  E(RB3LYP) =  -470.933900279     A.U. after    1 cycles

                      1                      2                      3
                      A                      A                      A
 Frequencies --     31.8705                92.1413               114.4107
 Red. masses --      7.0824                 3.4923                 3.3689
 Frc consts  --      0.0042                 0.0175                 0.0260
 IR Inten    --      1.6783                 0.4869                 0.4656

                      4                      5                      6
                      A                      A                      A
 Frequencies --    134.9206               148.6053               194.8162
 Red. masses --      1.4732                 3.0220                 5.5310
 Frc consts  --      0.0158                 0.0393                 0.1237
 IR Inten    --      0.8156                 2.6619                 1.3544

                      7                      8                      9
                      A                      A                      A
 Frequencies --    236.6163               252.3930               342.5114
 Red. masses --      7.4304                 5.6569                 4.9262
 Frc consts  --      0.2451                 0.2123                 0.3405
 IR Inten    --      0.8889                 1.2923                17.2363

                     10                     11                     12
                      A                      A                      A
 Frequencies --    386.7571               429.3191               469.7405
 Red. masses --      6.6797                 3.9648                 4.4942
 Frc consts  --      0.5887                 0.4306                 0.5843
 IR Inten    --      2.2235                 2.7672                 6.4265

                     13                     14                     15
                      A                      A                      A
 Frequencies --    527.9642               651.7491               699.5546
 Red. masses --      5.1673                 6.6642                 6.0979
 Frc consts  --      0.8486                 1.6679                 1.7582
 IR Inten    --      3.7175                 9.6741                14.0771

                     16                     17                     18
                      A                      A                      A
 Frequencies --    704.5420               756.7024               805.0648
 Red. masses --      5.5059                 1.5751                 2.7664
 Frc consts  --      1.6102                 0.5314                 1.0564
 IR Inten    --     11.2529                46.3730                 3.8121

                     19                     20                     21
                      A                      A                      A
 Frequencies --    839.4277               891.7780               972.1268
 Red. masses --      5.2368                 1.3754                 1.3743
 Frc consts  --      2.1741                 0.6444                 0.7652
 IR Inten    --      6.1414                 0.1857                 1.5397

                     22                     23                     24
                      A                      A                      A
 Frequencies --   1002.1199              1004.0704              1029.5980
 Red. masses --      3.1453                 1.6839                 7.9321
 Frc consts  --      1.8610                 1.0002                 4.9542
 IR Inten    --     18.0080                 8.7958                57.4161

                     25                     26                     27
                      A                      A                      A
 Frequencies --   1079.9974              1135.4573              1167.8387
 Red. masses --      2.4137                 2.3787                 1.9281
 Frc consts  --      1.6587                 1.8069                 1.5493
 IR Inten    --     10.3147                63.1454                59.3967

                     28                     29                     30
                      A                      A                      A
 Frequencies --   1180.4155              1195.6562              1217.5165
 Red. masses --      1.2791                 1.0904                 1.6304
 Frc consts  --      1.0501                 0.9184                 1.4240
 IR Inten    --      1.3279                 1.9572                54.3444

                     31                     32                     33
                      A                      A                      A
 Frequencies --   1290.3717              1297.3502              1345.7752
 Red. masses --      5.0026                 1.4520                 8.2613
 Frc consts  --      4.9077                 1.4399                 8.8154
 IR Inten    --    390.5388                12.2214                53.6639

                     34                     35                     36
                      A                      A                      A
 Frequencies --   1468.4260              1480.6674              1493.8595
 Red. masses --      2.0779                 1.1992                 1.0463
 Frc consts  --      2.6398                 1.5491                 1.3757
 IR Inten    --     22.0162                13.2540                 6.1925

                     37                     38                     39
                      A                      A                      A
 Frequencies --   1507.4354              1510.6152              1618.1873
 Red. masses --      1.7968                 1.2461                 5.6321
 Frc consts  --      2.4057                 1.6753                 8.6891
 IR Inten    --     32.9834                 1.2665                15.7623

                     40                     41                     42
                      A                      A                      A
 Frequencies --   1643.2401              1823.8873              3067.0175
 Red. masses --      5.9204                12.0055                 1.0297
 Frc consts  --      9.4190                23.5302                 5.7071
 IR Inten    --     25.4070               187.3232                35.8029

                     43                     44                     45
                      A                      A                      A
 Frequencies --   3143.8693              3177.0685              3193.9917
 Red. masses --      1.1068                 1.1073                 1.0868
 Frc consts  --      6.4456                 6.5850                 6.5322
 IR Inten    --     18.9126                15.9127                 2.6647

                     46                     47                     48
                      A                      A                      A
 Frequencies --   3209.9393              3223.7077              3238.2669
 Red. masses --      1.0927                 1.0946                 1.0929
 Frc consts  --      6.6334                 6.7023                 6.7522
 IR Inten    --     11.8207                 7.0472                 3.1331

 - Thermochemistry -
 -------------------
 Temperature   298.150 Kelvin.  Pressure   1.00000 Atm.
 Atom     1 has atomic number  6 and mass  12.00000

 Molecular mass:   261.94500 amu.
 Principal axes and moments of inertia in atomic units:
                           1         2         3
     Eigenvalues --  2053.570293306.004565287.96519
           X            0.99297   0.11832  -0.00390
           Y           -0.11833   0.99297  -0.00156
           Z            0.00369   0.00201   0.99999
 This molecule is an asymmetric top.
 Rotational symmetry number  1.
 Warning -- assumption of classical behavior for rotation
           may cause significant error
 Rotational temperatures (Kelvin)      0.04218     0.02620     0.01638
 Rotational constants (GHZ):           0.87883     0.54590     0.34129
 Zero-point vibrational energy     349485.2 (Joules/Mol)
                                   83.52896 (Kcal/Mol)
 Warning -- explicit consideration of  13 degrees of freedom as
           vibrations may cause significant error
 Vibrational temperatures:     45.85   132.57   164.61   194.12   213.81
          (Kelvin)            280.30   340.44   363.14   492.80   556.46
                              617.69   675.85   759.62   937.72  1006.50
                             1013.68  1088.73  1158.31  1207.75  1283.07
                             1398.67  1441.83  1444.63  1481.36  1553.88
                             1633.67  1680.26  1698.35  1720.28  1751.73
                             1856.56  1866.60  1936.27  2112.74  2130.35
                             2149.33  2168.86  2173.44  2328.21  2364.26
                             2624.17  4412.75  4523.33  4571.09  4595.44
                             4618.39  4638.20  4659.14

 Zero-point correction=                           0.133112 (Hartree/Particle)
 Thermal correction to Energy=                    0.143553
 Thermal correction to Enthalpy=                  0.144498
 Thermal correction to Gibbs Free Energy=         0.094458
 Sum of electronic and zero-point Energies=           -470.800788
 Sum of electronic and thermal Energies=              -470.790347
 Sum of electronic and thermal Enthalpies=            -470.789403
 Sum of electronic and thermal Free Energies=         -470.839442

                     E (Thermal)             CV                S
                      KCal/Mol        Cal/Mol-Kelvin    Cal/Mol-Kelvin
 Total                   90.081             36.922            105.317
 Electronic               0.000              0.000              0.000
 Translational            0.889              2.981             42.588
 Rotational               0.889              2.981             31.951
 Vibrational             88.304             30.961             30.778
 Vibration     1          0.594              1.983              5.709
 Vibration     2          0.602              1.955              3.614
 Vibration     3          0.607              1.937              3.193
 Vibration     4          0.613              1.918              2.875
 Vibration     5          0.618              1.904              2.690
 Vibration     6          0.635              1.847              2.182
 Vibration     7          0.656              1.785              1.828
 Vibration     8          0.664              1.759              1.714
 Vibration     9          0.722              1.590              1.200
 Vibration    10          0.755              1.498              1.013
 Vibration    11          0.791              1.406              0.861
 Vibration    12          0.827              1.317              0.738
 Vibration    13          0.883              1.188              0.592

 Optimization completed.
    -- Stationary point found.
 Normal termination of Gaussian 16 at Tue Sep 17 10:00:25 2024.

 ----------------------------------------------------------------------
 #p M062X/def2tzvp geom=check guess=read scf(xqc,tight) integral(grid=u
 ltrafine) scrf(SMD, solvent=1,4-Dioxane) polar prop=efg volume
 ----------------------------------------------------------------------

 ---
 spe
 ---
 Structure from the checkpoint file:  "smiles_00115_conf_3.chk"
 Charge =  0 Multiplicity = 1

 SCF Done:  E(RM062X) =  -757.140073765     A.U. after   24 cycles

  Exact polarizability:     178.284     -11.574     184.275      -0.500       1.160      86.008
 Approx polarizability:     190.695     -17.072     198.703      -1.663       3.637     110.079

 1\1\GINC-HPC-52-09\SP\RM062X\def2TZVP\C8H7I1O2\MANTIND\17-Sep-2024\0\\
 #p M062X/def2tzvp geom=check guess=read scf(xqc,tight) integral(grid=u
 ltrafine) scrf(SMD, solvent=1,4-Dioxane) polar prop=efg volume\\spe\\0
 ,1\C,0,-0.8643059085,-3.7153553538,-0.9823153195\O,0,-1.2617660897,-2.
 3388389217,-1.0671581002\C,0,-0.6653083503,-1.5207402187,-0.165757677\
 O,0,0.1578116931,-1.9125109826,0.6313556511\C,0,-1.1793419679,-0.12156
 85979,-0.2847736725\C,0,-2.457525538,0.0718315391,-0.840009369\C,0,-3.
 0252391686,1.3363245387,-0.9345746753\C,0,-2.3107407323,2.444897903,-0

 Normal termination of Gaussian 16 at Tue Sep 17 10:41:21 2024.
 Gaussian 16:  ES64L-G16RevC.02  7-Dec-2021

 ----------------------------------------------------------------------
 #p M062X/def2tzvp geom=check guess=read scf(xqc,tight) integral(grid=u
 ltrafine) scrf(SMD, solvent=1,4-Dioxane) nmr=giao
 ----------------------------------------------------------------------

 ---
 spe
 ---
 Structure from the checkpoint file:  "smiles_00115_conf_3.chk"
 Charge =  0 Multiplicity = 1

                         Standard orientation:
 ---------------------------------------------------------------------
 Center     Atomic      Atomic             Coordinates (Angstroms)
 Number     Number       Type             X           Y           Z
 ---------------------------------------------------------------------
      1          6           0        3.566328    2.073319   -0.200727
      2          8           0        2.909293    0.801389   -0.303047
      3          6           0        1.634052    0.784322    0.156341
      4          8           0        1.081489    1.768906    0.594142
      5          6           0        1.047392   -0.588277    0.067574
      6          6           0        1.925835   -1.687246    0.060651
      7          6           0        1.454966   -2.994062    0.034196
      8          6           0        0.081045   -3.227903   -0.000144
      9          6           0       -0.809116   -2.155741   -0.009538
     10          6           0       -0.333392   -0.843425    0.029997
     11         53           0       -1.839695    0.679572   -0.050318
     12          1           0        3.618977    2.396769    0.841862
     13          1           0        4.565496    1.920675   -0.607777
     14          1           0        3.026675    2.829767   -0.775319
     15          1           0        2.990104   -1.489279    0.083854
     16          1           0        2.155339   -3.822857    0.038537
     17          1           0       -0.305338   -4.242284   -0.023987
     18          1           0       -1.876351   -2.338405   -0.049211
 ---------------------------------------------------------------------

 SCF Done:  E(RM062X) =  -757.140073765     A.U. after    1 cycles

      1  C    Isotropic =   130.5996   Anisotropy =    71.9357

      2  O    Isotropic =   128.2980   Anisotropy =   169.3312

      3  C    Isotropic =    -0.6814   Anisotropy =   106.4011

      4  O    Isotropic =  -156.1850   Anisotropy =   729.0261

      5  C    Isotropic =    28.7913   Anisotropy =   185.7860

      6  C    Isotropic =    28.5230   Anisotropy =   218.0443

      7  C    Isotropic =    35.6211   Anisotropy =   217.0766

      8  C    Isotropic =    28.7399   Anisotropy =   215.2004

      9  C    Isotropic =    22.5007   Anisotropy =   180.4294

     10  C    Isotropic =    22.9458   Anisotropy =   163.6795

     11  I    Isotropic =   430.7917   Anisotropy =    72.3959

     12  H    Isotropic =    27.9951   Anisotropy =     8.3612

     13  H    Isotropic =    28.0518   Anisotropy =     8.0252

     14  H    Isotropic =    27.9198   Anisotropy =     7.9136

     15  H    Isotropic =    22.7955   Anisotropy =    10.0013

     16  H    Isotropic =    23.6025   Anisotropy =     5.8604

     17  H    Isotropic =    23.5387   Anisotropy =     6.3604

     18  H    Isotropic =    23.2793   Anisotropy =    13.5925

 The electronic state is 1-A.
 Alpha  occ. eigenvalues --  -19.67608 -19.62336 -10.68326 -10.60924 -10.58865
 Alpha  occ. eigenvalues --  -10.57926 -10.56336 -10.56249 -10.56163 -10.55678
 Alpha  occ. eigenvalues --   -7.10101  -5.09492  -5.08411  -5.08339  -2.06312
 Alpha  occ. eigenvalues --   -2.05890  -2.05834  -2.04930  -2.04925  -1.23729
 Alpha  occ. eigenvalues --   -1.14501  -0.98401  -0.88466  -0.86994  -0.81877
 Alpha  occ. eigenvalues --   -0.77632  -0.72430  -0.69249  -0.65355  -0.62001
 Alpha  occ. eigenvalues --   -0.57209  -0.56924  -0.56268  -0.53218  -0.52507
 Alpha  occ. eigenvalues --   -0.49132  -0.48145  -0.47701  -0.45159  -0.43702
 Alpha  occ. eigenvalues --   -0.43406  -0.39328  -0.38271  -0.37186  -0.35528
 Alpha  occ. eigenvalues --   -0.32698  -0.30876  -0.29478
 Alpha virt. eigenvalues --   -0.02692  -0.00407   0.00319   0.07782   0.08317
 Alpha virt. eigenvalues --    0.09298   0.10923   0.11699   0.13075   0.13517
 Alpha virt. eigenvalues --    0.15220   0.15794   0.15892   0.16880   0.17450

 Mulliken charges:
               1
     1  C   -0.262692
     2  O   -0.282851
     3  C    0.366401
     4  O   -0.345089
     5  C    0.049678
     6  C   -0.168249
     7  C   -0.158285
     8  C   -0.138806
     9  C   -0.168184
    10  C   -0.005282
    11  I   -0.065408
    12  H    0.160560
    13  H    0.155188
    14  H    0.161093
    15  H    0.179675
    16  H    0.169207
    17  H    0.171718
    18  H    0.181326
 Sum of Mulliken charges =  -0.00000

 Dipole moment (field-independent basis, Debye):
    X=              2.5823    Y=             -2.6120    Z=             -0.5953  Tot=              3.7209
 Quadrupole moment (field-independent basis, Debye-Ang):
   XX=            -71.7478   YY=            -73.5517   ZZ=            -88.3102
   XY=              3.3566   XZ=              0.0070   YZ=             -2.2986

 1\1\GINC-HPC-52-09\SP\RM062X\def2TZVP\C8H7I1O2\MANTIND\17-Sep-2024\0\\
 #p M062X/def2tzvp geom=check guess=read scf(xqc,tight) integral(grid=u
 ltrafine) scrf(SMD, solvent=1,4-Dioxane) nmr=giao\\spe\\0,1\C,0,-0.864
 3059085,-3.7153553538,-0.9823153195\O,0,-1.2617660897,-2.3388389217,-1
 .0671581002\C,0,-0.6653083503,-1.5207402187,-0.165757677\O,0,0.1578116
 931,-1.9125109826,0.6313556511\C,0,-1.1793419679,-0.1215685979,-0.2847
 736725\C,0,-2.457525538,0.0718315391,-0.840009369\C,0,-3.0252391686,1.
 3363245387,-0.9345746753\C,0,-2.3107407323,2.444897903,-0.4828258146\C

 Normal termination of Gaussian 16 at Tue Sep 17 10:52:17 2024.
