 Gaussian 16, Revision C.02,

 ----------------------------------------------------------------------
 #p B3LYP/gen pseudo=read EmpiricalDispersion=GD3BJ opt freq scf(xqc,ti
 ght) integral(grid=ultrafine)
 ----------------------------------------------------------------------

 ----------------------------------
 opt-freq conformers_unique/conf_ab
 ----------------------------------
 Symbolic Z-matrix:
 Charge =  0 Multiplicity = 1

 SCF Done:  E(RB3LYP) =  -470.930696721     A.U. after   15 cycles
 SCF Done:  E(RB3LYP) =  -470.931139331     A.U. after   14 cycles
 SCF Done:  E(RB3LYP) =  -470.931912119     A.U. after   14 cycles
 SCF Done:  E(RB3LYP) =  -470.933097952     A.U. after   13 cycles
 SCF Done:  E(RB3LYP) =  -470.933181806     A.U. after   12 cycles
 SCF Done:  E(RB3LYP) =  -470.933215877     A.U. after   11 cycles
 SCF Done:  E(RB3LYP) =  -470.933367997     A.U. after   12 cycles
 SCF Done:  E(RB3LYP) =  -470.933062291     A.U. after   15 cycles
 SCF Done:  E(RB3LYP) =  -470.933644860     A.U. after   11 cycles
 SCF Done:  E(RB3LYP) =  -470.933805179     A.U. after   11 cycles
 SCF Done:  E(RB3LYP) =  -470.934031293     A.U. after   12 cycles
 SCF Done:  E(RB3LYP) =  -470.934085186     A.U. after   12 cycles
 SCF Done:  E(RB3LYP) =  -470.934111260     A.U. after   12 cycles
 SCF Done:  E(RB3LYP) =  -470.934119183     A.U. after   12 cycles
 SCF Done:  E(RB3LYP) =  -470.934119857     A.U. after    9 cycles
 Optimization completed.
    -- Stationary point found.
 Normal termination of Gaussian 16 at Tue Sep 17 09:59:53 2024.

 ------------------------------------------------------------------
 #P Geom=AllCheck Guess=TCheck SCRF=Check GenChk RB3LYP/ChkBas Freq
 ------------------------------------------------------------------

 Structure from the checkpoint file:  "smiles_00115_conf_1.chk"
 ----------------------------------
 opt-freq conformers_unique/conf_ab
 ----------------------------------
 Charge =  0 Multiplicity = 1

 SCF Done:  E(RB3LYP) =  -470.934119857     A.U. after    1 cycles

                      1                      2                      3
                      A                      A                      A
 Frequencies --     29.6188                89.4074               104.9650
 Red. masses --      6.1578                 3.7142                 3.5771
 Frc consts  --      0.0032                 0.0175                 0.0232
 IR Inten    --      2.3352                 0.6814                 0.7264

                      4                      5                      6
                      A                      A                      A
 Frequencies --    124.6961               151.1358               192.4162
 Red. masses --      1.2329                 4.0417                 7.4013
 Frc consts  --      0.0113                 0.0544                 0.1615
 IR Inten    --      0.5942                 2.4839                 1.2647

                      7                      8                      9
                      A                      A                      A
 Frequencies --    237.2999               253.0266               340.1664
 Red. masses --      7.1269                 4.9342                 4.8109
 Frc consts  --      0.2365                 0.1861                 0.3280
 IR Inten    --      1.4540                 1.1217                17.9269

                     10                     11                     12
                      A                      A                      A
 Frequencies --    376.5568               430.9817               471.7167
 Red. masses --      6.5408                 4.1197                 4.6344
 Frc consts  --      0.5464                 0.4508                 0.6076
 IR Inten    --      2.5242                 1.0160                 7.1693

                     13                     14                     15
                      A                      A                      A
 Frequencies --    536.1598               649.8037               700.5261
 Red. masses --      5.1456                 6.6561                 6.0186
 Frc consts  --      0.8715                 1.6559                 1.7402
 IR Inten    --      0.6978                 7.1777                17.2598

                     16                     17                     18
                      A                      A                      A
 Frequencies --    706.1049               758.5001               804.6062
 Red. masses --      5.6193                 1.6061                 2.6572
 Frc consts  --      1.6507                 0.5444                 1.0136
 IR Inten    --      9.7510                48.2301                 3.7925

                     19                     20                     21
                      A                      A                      A
 Frequencies --    847.6547               893.5878               975.7797
 Red. masses --      5.1144                 1.3819                 1.3781
 Frc consts  --      2.1651                 0.6502                 0.7731
 IR Inten    --      8.9882                 0.3376                 2.1106

                     22                     23                     24
                      A                      A                      A
 Frequencies --    999.6216              1005.1520              1025.8256
 Red. masses --      5.2046                 1.3978                 7.5874
 Frc consts  --      3.0641                 0.8321                 4.7042
 IR Inten    --     17.4804                 0.9870                43.7005

                     25                     26                     27
                      A                      A                      A
 Frequencies --   1078.4996              1142.9364              1165.1873
 Red. masses --      2.4715                 1.7150                 2.4305
 Frc consts  --      1.6938                 1.3200                 1.9442
 IR Inten    --     15.1482                 1.0903                70.8038

                     28                     29                     30
                      A                      A                      A
 Frequencies --   1178.5088              1194.2807              1222.2903
 Red. masses --      1.2786                 1.0906                 1.7054
 Frc consts  --      1.0463                 0.9165                 1.5011
 IR Inten    --      0.7751                 0.5616                22.7060

                     31                     32                     33
                      A                      A                      A
 Frequencies --   1289.4203              1330.0023              1342.2426
 Red. masses --      1.5149                 4.5386                 6.7534
 Frc consts  --      1.4839                 4.7302                 7.1686
 IR Inten    --     22.2399               292.7757               146.8205

                     34                     35                     36
                      A                      A                      A
 Frequencies --   1468.4457              1482.6143              1494.7201
 Red. masses --      1.9238                 1.3320                 1.0473
 Frc consts  --      2.4442                 1.7251                 1.3787
 IR Inten    --     28.1154                41.8803                 5.7547

                     37                     38                     39
                      A                      A                      A
 Frequencies --   1505.2386              1509.5729              1616.3297
 Red. masses --      1.4148                 1.5203                 5.6868
 Frc consts  --      1.8886                 2.0413                 8.7534
 IR Inten    --      4.0627                10.2022                10.8733

                     40                     41                     42
                      A                      A                      A
 Frequencies --   1644.3928              1799.0335              3068.9607
 Red. masses --      5.9002                11.6282                 1.0298
 Frc consts  --      9.4000                22.1738                 5.7144
 IR Inten    --     28.1032               238.1457                32.0761

                     43                     44                     45
                      A                      A                      A
 Frequencies --   3146.4758              3181.8054              3194.4478
 Red. masses --      1.1070                 1.1072                 1.0868
 Frc consts  --      6.4574                 6.6041                 6.5340
 IR Inten    --     17.8634                12.4135                 3.0385

                     46                     47                     48
                      A                      A                      A
 Frequencies --   3210.0252              3223.7574              3227.4134
 Red. masses --      1.0917                 1.0932                 1.0955
 Frc consts  --      6.6278                 6.6941                 6.7234
 IR Inten    --      9.5474                 2.8831                 7.8036

 - Thermochemistry -
 -------------------
 Temperature   298.150 Kelvin.  Pressure   1.00000 Atm.
 Atom     1 has atomic number  6 and mass  12.00000

 Molecular mass:   261.94500 amu.
 Principal axes and moments of inertia in atomic units:
                           1         2         3
     Eigenvalues --  2217.586652839.366054940.69348
           X            0.97400   0.22654   0.00306
           Y           -0.22655   0.97400   0.00270
           Z           -0.00237  -0.00332   0.99999
 This molecule is an asymmetric top.
 Rotational symmetry number  1.
 Warning -- assumption of classical behavior for rotation
           may cause significant error
 Rotational temperatures (Kelvin)      0.03906     0.03050     0.01753
 Rotational constants (GHZ):           0.81383     0.63561     0.36528
 Zero-point vibrational energy     349440.6 (Joules/Mol)
                                   83.51832 (Kcal/Mol)
 Warning -- explicit consideration of  13 degrees of freedom as
           vibrations may cause significant error
 Vibrational temperatures:     42.61   128.64   151.02   179.41   217.45
          (Kelvin)            276.84   341.42   364.05   489.42   541.78
                              620.09   678.70   771.41   934.92  1007.90
                             1015.93  1091.31  1157.65  1219.59  1285.67
                             1403.93  1438.23  1446.19  1475.93  1551.72
                             1644.43  1676.44  1695.61  1718.30  1758.60
                             1855.19  1913.58  1931.19  2112.77  2133.15
                             2150.57  2165.70  2171.94  2325.54  2365.91
                             2588.41  4415.55  4527.08  4577.91  4596.10
                             4618.51  4638.27  4643.53

 Zero-point correction=                           0.133095 (Hartree/Particle)
 Thermal correction to Energy=                    0.143581
 Thermal correction to Enthalpy=                  0.144525
 Thermal correction to Gibbs Free Energy=         0.094308
 Sum of electronic and zero-point Energies=           -470.801025
 Sum of electronic and thermal Energies=              -470.790539
 Sum of electronic and thermal Enthalpies=            -470.789595
 Sum of electronic and thermal Free Energies=         -470.839812

                     E (Thermal)             CV                S
                      KCal/Mol        Cal/Mol-Kelvin    Cal/Mol-Kelvin
 Total                   90.098             36.910            105.690
 Electronic               0.000              0.000              0.000
 Translational            0.889              2.981             42.588
 Rotational               0.889              2.981             31.809
 Vibrational             88.321             30.948             31.293
 Vibration     1          0.593              1.984              5.855
 Vibration     2          0.602              1.957              3.673
 Vibration     3          0.605              1.945              3.360
 Vibration     4          0.610              1.928              3.026
 Vibration     5          0.619              1.901              2.658
 Vibration     6          0.634              1.850              2.204
 Vibration     7          0.656              1.784              1.823
 Vibration     8          0.664              1.758              1.709
 Vibration     9          0.720              1.595              1.211
 Vibration    10          0.747              1.520              1.053
 Vibration    11          0.792              1.403              0.855
 Vibration    12          0.829              1.313              0.733
 Vibration    13          0.891              1.170              0.574

                           ! Non-Optimized Parameters !
 Normal termination of Gaussian 16 at Tue Sep 17 10:00:51 2024.

 ----------------------------------------------------------------------
 #p M062X/def2tzvp geom=check guess=read scf(xqc,tight) integral(grid=u
 ltrafine) scrf(SMD, solvent=1,4-Dioxane) polar prop=efg volume
 ----------------------------------------------------------------------

 ---
 spe
 ---
 Structure from the checkpoint file:  "smiles_00115_conf_1.chk"
 Charge =  0 Multiplicity = 1

 SCF Done:  E(RM062X) =  -757.139532723     A.U. after   22 cycles

  Exact polarizability:     192.802      11.626     167.647       1.488      -4.754      87.109
 Approx polarizability:     207.685       4.017     179.534       3.577      -7.789     111.829

 1\1\GINC-HPC-54-28\SP\RM062X\def2TZVP\C8H7I1O2\MANTIND\17-Sep-2024\0\\
 #p M062X/def2tzvp geom=check guess=read scf(xqc,tight) integral(grid=u
 ltrafine) scrf(SMD, solvent=1,4-Dioxane) polar prop=efg volume\\spe\\0
 ,1\C,0,0.0892030702,-3.4516812475,-0.4779157393\O,0,-0.1731697618,-2.0
 430113746,-0.5653787622\C,0,-1.2560717057,-1.6170079558,0.1000044504\O
 ,0,-2.0188466612,-2.3603148497,0.6863526931\C,0,-1.4741119827,-0.13906
 81086,-0.0038412858\C,0,-2.8213535198,0.2549643075,0.0780721821\C,0,-3
 .1994120859,1.5866937825,-0.0287016175\C,0,-2.219919305,2.563683104,-0

 Normal termination of Gaussian 16 at Tue Sep 17 10:40:37 2024.
 Gaussian 16:  ES64L-G16RevC.02  7-Dec-2021

 ----------------------------------------------------------------------
 #p M062X/def2tzvp geom=check guess=read scf(xqc,tight) integral(grid=u
 ltrafine) scrf(SMD, solvent=1,4-Dioxane) nmr=giao
 ----------------------------------------------------------------------

 ---
 spe
 ---
 Structure from the checkpoint file:  "smiles_00115_conf_1.chk"
 Charge =  0 Multiplicity = 1

                         Standard orientation:
 ---------------------------------------------------------------------
 Center     Atomic      Atomic             Coordinates (Angstroms)
 Number     Number       Type             X           Y           Z
 ---------------------------------------------------------------------
      1          6           0        0.483151    3.438176    0.381013
      2          8           0        0.125330    2.050804    0.470466
      3          6           0       -1.024236    1.713144   -0.130679
      4          8           0       -1.765630    2.517590   -0.661090
      5          6           0       -1.341937    0.253274   -0.028321
      6          6           0       -2.716650   -0.042006   -0.030428
      7          6           0       -3.182885   -1.344636    0.086246
      8          6           0       -2.267851   -2.391707    0.189915
      9          6           0       -0.899433   -2.128793    0.164172
     10          6           0       -0.435275   -0.815347    0.058159
     11         53           0        1.700875   -0.619862   -0.078796
     12          1           0        1.450915    3.520705    0.874123
     13          1           0        0.553243    3.748391   -0.664065
     14          1           0       -0.263100    4.057519    0.884377
     15          1           0       -3.402416    0.792183   -0.126290
     16          1           0       -4.249858   -1.541680    0.092582
     17          1           0       -2.611165   -3.417771    0.280101
     18          1           0       -0.190898   -2.946466    0.219886
 ---------------------------------------------------------------------

 SCF Done:  E(RM062X) =  -757.139532723     A.U. after    1 cycles

      1  C    Isotropic =   131.3354   Anisotropy =    72.2690

      2  O    Isotropic =   123.6362   Anisotropy =   185.7218

      3  C    Isotropic =    -2.8448   Anisotropy =   112.3103

      4  O    Isotropic =  -145.4168   Anisotropy =   683.9704

      5  C    Isotropic =    25.9089   Anisotropy =   183.6147

      6  C    Isotropic =    26.0964   Anisotropy =   218.3959

      7  C    Isotropic =    35.7262   Anisotropy =   220.1785

      8  C    Isotropic =    28.9634   Anisotropy =   215.4422

      9  C    Isotropic =    23.1798   Anisotropy =   178.2873

     10  C    Isotropic =    25.4643   Anisotropy =   151.6632

     11  I    Isotropic =   430.3738   Anisotropy =    73.5592

     12  H    Isotropic =    27.9679   Anisotropy =     7.6347

     13  H    Isotropic =    27.9477   Anisotropy =     8.3836

     14  H    Isotropic =    27.9898   Anisotropy =     9.2282

     15  H    Isotropic =    22.7420   Anisotropy =     9.2445

     16  H    Isotropic =    23.6249   Anisotropy =     5.5968

     17  H    Isotropic =    23.5825   Anisotropy =     6.3097

     18  H    Isotropic =    23.3306   Anisotropy =    13.7195

 The electronic state is 1-A.
 Alpha  occ. eigenvalues --  -19.67814 -19.62158 -10.68374 -10.61147 -10.58920
 Alpha  occ. eigenvalues --  -10.57918 -10.56283 -10.56189 -10.56177 -10.55640
 Alpha  occ. eigenvalues --   -7.10500  -5.09882  -5.08804  -5.08752  -2.06701
 Alpha  occ. eigenvalues --   -2.06276  -2.06237  -2.05337  -2.05334  -1.24023
 Alpha  occ. eigenvalues --   -1.14461  -0.98388  -0.88382  -0.86919  -0.82287
 Alpha  occ. eigenvalues --   -0.78058  -0.72079  -0.69536  -0.65664  -0.61653
 Alpha  occ. eigenvalues --   -0.57460  -0.57188  -0.56368  -0.53340  -0.51950
 Alpha  occ. eigenvalues --   -0.49530  -0.48309  -0.47098  -0.45224  -0.44006
 Alpha  occ. eigenvalues --   -0.42980  -0.39563  -0.38323  -0.36783  -0.35803
 Alpha  occ. eigenvalues --   -0.32559  -0.31607  -0.29732
 Alpha virt. eigenvalues --   -0.02564  -0.00878   0.00324   0.07502   0.08324
 Alpha virt. eigenvalues --    0.09301   0.11030   0.11811   0.13221   0.13803
 Alpha virt. eigenvalues --    0.14686   0.15302   0.15877   0.17011   0.17244

 Mulliken charges:
               1
     1  C   -0.261063
     2  O   -0.270269
     3  C    0.363545
     4  O   -0.369411
     5  C    0.053977
     6  C   -0.163576
     7  C   -0.155407
     8  C   -0.139678
     9  C   -0.170542
    10  C    0.000309
    11  I   -0.080362
    12  H    0.157970
    13  H    0.162906
    14  H    0.161010
    15  H    0.184985
    16  H    0.170242
    17  H    0.171678
    18  H    0.183686
 Sum of Mulliken charges =   0.00000

 Dipole moment (field-independent basis, Debye):
    X=             -0.3077    Y=             -1.1535    Z=              1.0924  Tot=              1.6182
 Quadrupole moment (field-independent basis, Debye-Ang):
   XX=            -77.9101   YY=            -74.9886   ZZ=            -88.6234
   XY=             11.3494   XZ=             -2.5325   YZ=              2.8875

 1\1\GINC-HPC-54-28\SP\RM062X\def2TZVP\C8H7I1O2\MANTIND\17-Sep-2024\0\\
 #p M062X/def2tzvp geom=check guess=read scf(xqc,tight) integral(grid=u
 ltrafine) scrf(SMD, solvent=1,4-Dioxane) nmr=giao\\spe\\0,1\C,0,0.0892
 030702,-3.4516812475,-0.4779157393\O,0,-0.1731697618,-2.0430113746,-0.
 5653787622\C,0,-1.2560717057,-1.6170079558,0.1000044504\O,0,-2.0188466
 612,-2.3603148497,0.6863526931\C,0,-1.4741119827,-0.1390681086,-0.0038
 412858\C,0,-2.8213535198,0.2549643075,0.0780721821\C,0,-3.1994120859,1
 .5866937825,-0.0287016175\C,0,-2.219919305,2.563683104,-0.203282537\C,

 Normal termination of Gaussian 16 at Tue Sep 17 10:51:44 2024.
