 Gaussian 16, Revision C.02,

 ----------------------------------------------------------------------
 #p B3LYP/6-31G(d,p) EmpiricalDispersion=GD3BJ opt freq scf(xqc,tight)
 integral(grid=ultrafine)
 ----------------------------------------------------------------------

 ----------------------------------
 opt-freq conformers_unique/conf_aa
 ----------------------------------
 Symbolic Z-matrix:
 Charge =  0 Multiplicity = 1

 SCF Done:  E(RB3LYP) =  -1163.68250183     A.U. after   15 cycles
 SCF Done:  E(RB3LYP) =  -1163.68444036     A.U. after   12 cycles
 SCF Done:  E(RB3LYP) =  -1163.68456054     A.U. after   11 cycles
 SCF Done:  E(RB3LYP) =  -1163.68457139     A.U. after    9 cycles
 SCF Done:  E(RB3LYP) =  -1163.68457235     A.U. after    8 cycles
 SCF Done:  E(RB3LYP) =  -1163.68457305     A.U. after    8 cycles
 Optimization completed.
    -- Stationary point found.
 Normal termination of Gaussian 16 at Tue Sep 17 09:43:41 2024.

 ----------------------------------------------------------------------
 #P Geom=AllCheck Guess=TCheck SCRF=Check GenChk RB3LYP/6-31G(d,p) Freq
 ----------------------------------------------------------------------

 Structure from the checkpoint file:  "smiles_00058_conf_0.chk"
 ----------------------------------
 opt-freq conformers_unique/conf_aa
 ----------------------------------
 Charge =  0 Multiplicity = 1

 SCF Done:  E(RB3LYP) =  -1163.68457305     A.U. after    1 cycles

                      1                      2                      3
                      A                      A                      A
 Frequencies --     35.7380                44.0337                79.8979
 Red. masses --      5.5772                 7.0693                 4.5158
 Frc consts  --      0.0042                 0.0081                 0.0170
 IR Inten    --      0.0000                 4.0143                 0.2573

                      4                      5                      6
                      A                      A                      A
 Frequencies --     87.4911               115.9243               129.8800
 Red. masses --      4.6037                 1.8324                 1.1315
 Frc consts  --      0.0208                 0.0145                 0.0112
 IR Inten    --      0.0090                 0.0000                 0.3745

                      7                      8                      9
                      A                      A                      A
 Frequencies --    136.1618               142.1156               181.2438
 Red. masses --      1.5557                 7.4935                 5.5086
 Frc consts  --      0.0170                 0.0892                 0.1066
 IR Inten    --      0.0001                 1.8787                10.8953

                     10                     11                     12
                      A                      A                      A
 Frequencies --    210.1430               225.4554               226.4225
 Red. masses --      4.1124                 6.8801                 6.6981
 Frc consts  --      0.1070                 0.2060                 0.2023
 IR Inten    --      0.0000                 0.0623                 2.4660

                     13                     14                     15
                      A                      A                      A
 Frequencies --    298.7536               321.5465               344.9259
 Red. masses --      5.2129                 7.0465                 4.4717
 Frc consts  --      0.2741                 0.4292                 0.3135
 IR Inten    --     21.0627                 4.9588                11.2749

                     16                     17                     18
                      A                      A                      A
 Frequencies --    389.8750               403.7790               479.8639
 Red. masses --     12.4830                 6.9049                 8.9924
 Frc consts  --      1.1179                 0.6633                 1.2200
 IR Inten    --     11.9025                 6.3194                 0.6331

                     19                     20                     21
                      A                      A                      A
 Frequencies --    502.6946               546.3696               582.9539
 Red. masses --      6.1950                 6.7879                 7.0040
 Frc consts  --      0.9224                 1.1939                 1.4024
 IR Inten    --      0.0000                15.8332                 1.0100

                     22                     23                     24
                      A                      A                      A
 Frequencies --    701.5422               750.9839               773.9503
 Red. masses --      6.5444                 6.8358                 8.1894
 Frc consts  --      1.8977                 2.2714                 2.8902
 IR Inten    --     10.9240                25.3649                81.9031

                     25                     26                     27
                      A                      A                      A
 Frequencies --    785.7889               795.1870               857.0258
 Red. masses --      4.4950                 7.3781                 6.4356
 Frc consts  --      1.6353                 2.7487                 2.7850
 IR Inten    --     15.2751                 0.0000                45.2352

                     28                     29                     30
                      A                      A                      A
 Frequencies --    915.0861               930.9793               953.1510
 Red. masses --      6.3795                 1.5381                 1.3929
 Frc consts  --      3.1474                 0.7854                 0.7456
 IR Inten    --     11.8155                16.2896                 0.0000

                     31                     32                     33
                      A                      A                      A
 Frequencies --   1013.6043              1017.6358              1032.6854
 Red. masses --      8.2621                 6.8697                 6.7973
 Frc consts  --      5.0012                 4.1915                 4.2709
 IR Inten    --      9.1869                31.3828                30.7435

                     34                     35                     36
                      A                      A                      A
 Frequencies --   1118.4960              1174.5936              1179.2611
 Red. masses --      1.3831                 1.7286                 1.2778
 Frc consts  --      1.0195                 1.4051                 1.0470
 IR Inten    --      2.5911                41.4189                 0.0012

                     37                     38                     39
                      A                      A                      A
 Frequencies --   1179.2970              1190.1932              1215.9227
 Red. masses --      1.2779                 2.3633                 1.5057
 Frc consts  --      1.0471                 1.9725                 1.3116
 IR Inten    --      1.6983                30.9089                 0.0332

                     40                     41                     42
                      A                      A                      A
 Frequencies --   1233.8882              1291.1956              1325.4801
 Red. masses --      2.8603                 3.8472                10.1502
 Frc consts  --      2.5657                 3.7790                10.5068
 IR Inten    --    115.0299               338.2894                 0.0872

                     43                     44                     45
                      A                      A                      A
 Frequencies --   1370.8329              1446.4921              1463.9130
 Red. masses --      5.3341                 3.0922                 3.5652
 Frc consts  --      5.9058                 3.8120                 4.5016
 IR Inten    --    729.7286                 1.8394                 0.0610

                     46                     47                     48
                      A                      A                      A
 Frequencies --   1485.7895              1486.0223              1496.4365
 Red. masses --      1.3866                 1.3881                 1.0463
 Frc consts  --      1.8035                 1.8060                 1.3805
 IR Inten    --     27.2490                39.7193                 0.0007

                     49                     50                     51
                      A                      A                      A
 Frequencies --   1496.6130              1507.4789              1507.7566
 Red. masses --      1.0463                 1.0565                 1.0577
 Frc consts  --      1.3808                 1.4146                 1.4166
 IR Inten    --     13.4898                 0.7130                10.1691

                     52                     53                     54
                      A                      A                      A
 Frequencies --   1616.0940              1617.0687              1800.6801
 Red. masses --      6.4528                 9.8291                11.6823
 Frc consts  --      9.9296                15.1433                22.3178
 IR Inten    --     82.7978                12.5769               236.6345

                     55                     56                     57
                      A                      A                      A
 Frequencies --   1803.5407              3066.6924              3066.8714
 Red. masses --     11.6674                 1.0301                 1.0301
 Frc consts  --     22.3602                 5.7076                 5.7085
 IR Inten    --    120.4818                37.4563                28.9297

                     58                     59                     60
                      A                      A                      A
 Frequencies --   3144.0030              3144.0740              3182.6899
 Red. masses --      1.1069                 1.1069                 1.1069
 Frc consts  --      6.4467                 6.4470                 6.6062
 IR Inten    --      0.0029                37.8360                 2.0355

                     61                     62                     63
                      A                      A                      A
 Frequencies --   3182.7856              3249.8702              3250.1706
 Red. masses --      1.1069                 1.0936                 1.0922
 Frc consts  --      6.6066                 6.8049                 6.7980
 IR Inten    --     25.0444                 0.4523                 9.7964

 - Thermochemistry -
 -------------------
 Temperature   298.150 Kelvin.  Pressure   1.00000 Atm.
 Atom     1 has atomic number  6 and mass  12.00000

 Molecular mass:   229.01419 amu.
 Principal axes and moments of inertia in atomic units:
                           1         2         3
     Eigenvalues --  3684.256394191.769707853.29569
           X            1.00000  -0.00000   0.00000
           Y            0.00000   1.00000   0.00000
           Z           -0.00000  -0.00000   1.00000
 This molecule is an asymmetric top.
 Rotational symmetry number  1.
 Warning -- assumption of classical behavior for rotation
           may cause significant error
 Rotational temperatures (Kelvin)      0.02351     0.02066     0.01103
 Rotational constants (GHZ):           0.48985     0.43054     0.22981
 Zero-point vibrational energy     432492.5 (Joules/Mol)
                                  103.36818 (Kcal/Mol)
 Warning -- explicit consideration of  21 degrees of freedom as
           vibrations may cause significant error
 Vibrational temperatures:     51.42    63.35   114.96   125.88   166.79
          (Kelvin)            186.87   195.91   204.47   260.77   302.35
                              324.38   325.77   429.84   462.63   496.27
                              560.94   580.95   690.42   723.27   786.10
                              838.74  1009.36  1080.50  1113.54  1130.57
                             1144.10  1233.07  1316.60  1339.47  1371.37
                             1458.35  1464.15  1485.80  1609.27  1689.98
                             1696.69  1696.75  1712.42  1749.44  1775.29
                             1857.74  1907.07  1972.32  2081.18  2106.24
                             2137.72  2138.05  2153.04  2153.29  2168.93
                             2169.33  2325.20  2326.60  2590.78  2594.89
                             4412.29  4412.54  4523.52  4523.62  4579.18
                             4579.32  4675.84  4676.27

 Zero-point correction=                           0.164728 (Hartree/Particle)
 Thermal correction to Energy=                    0.179292
 Thermal correction to Enthalpy=                  0.180236
 Thermal correction to Gibbs Free Energy=         0.121222
 Sum of electronic and zero-point Energies=          -1163.519845
 Sum of electronic and thermal Energies=             -1163.505281
 Sum of electronic and thermal Enthalpies=           -1163.504337
 Sum of electronic and thermal Free Energies=        -1163.563351

                     E (Thermal)             CV                S
                      KCal/Mol        Cal/Mol-Kelvin    Cal/Mol-Kelvin
 Total                  112.508             50.712            124.207
 Electronic               0.000              0.000              0.000
 Translational            0.889              2.981             42.188
 Rotational               0.889              2.981             33.161
 Vibrational            110.730             44.750             48.858
 Vibration     1          0.594              1.982              5.482
 Vibration     2          0.595              1.980              5.069
 Vibration     3          0.600              1.963              3.893
 Vibration     4          0.601              1.958              3.715
 Vibration     5          0.608              1.936              3.167
 Vibration     6          0.612              1.923              2.948
 Vibration     7          0.614              1.917              2.857
 Vibration     8          0.616              1.911              2.775
 Vibration     9          0.630              1.865              2.316
 Vibration    10          0.642              1.825              2.042
 Vibration    11          0.650              1.802              1.915
 Vibration    12          0.650              1.801              1.907
 Vibration    13          0.692              1.676              1.424
 Vibration    14          0.707              1.632              1.302
 Vibration    15          0.723              1.586              1.189
 Vibration    16          0.758              1.492              1.001
 Vibration    17          0.769              1.462              0.949
 Vibration    18          0.836              1.295              0.710
 Vibration    19          0.858              1.244              0.651
 Vibration    20          0.902              1.148              0.552
 Vibration    21          0.940              1.068              0.480

                           ! Non-Optimized Parameters !
 Normal termination of Gaussian 16 at Tue Sep 17 09:45:51 2024.

 ----------------------------------------------------------------------
 #p M062X/def2tzvp geom=check guess=read scf(xqc,tight) integral(grid=u
 ltrafine) scrf(SMD, solvent=1,4-Dioxane) polar prop=efg volume
 ----------------------------------------------------------------------

 ---
 spe
 ---
 Structure from the checkpoint file:  "smiles_00058_conf_0.chk"
 Charge =  0 Multiplicity = 1

 SCF Done:  E(RM062X) =  -1163.64513441     A.U. after   12 cycles

  Exact polarizability:     183.532      -0.000     196.163       0.002      -0.002      87.360
 Approx polarizability:     194.691       0.000     202.787      -0.003      -0.002     108.466

 Normal termination of Gaussian 16 at Tue Sep 17 10:42:18 2024.
 Gaussian 16:  ES64L-G16RevC.02  7-Dec-2021

 ----------------------------------------------------------------------
 #p M062X/def2tzvp geom=check guess=read scf(xqc,tight) integral(grid=u
 ltrafine) scrf(SMD, solvent=1,4-Dioxane) nmr=giao
 ----------------------------------------------------------------------

 ---
 spe
 ---
 Structure from the checkpoint file:  "smiles_00058_conf_0.chk"
 Charge =  0 Multiplicity = 1

                         Standard orientation:
 ---------------------------------------------------------------------
 Center     Atomic      Atomic             Coordinates (Angstroms)
 Number     Number       Type             X           Y           Z
 ---------------------------------------------------------------------
      1          6           0        3.517850   -2.794429   -0.000133
      2          8           0        2.292863   -2.042748    0.000083
      3          6           0        2.448392   -0.714531    0.000140
      4          8           0        3.524186   -0.147931    0.000233
      5          6           0        1.139872    0.027108    0.000063
      6          6           0        1.202727    1.425150   -0.000025
      7          6           0        0.000002    2.122124   -0.000072
      8         17           0        0.000004    3.868565   -0.000223
      9          6           0       -1.202724    1.425152    0.000013
     10          6           0       -1.139870    0.027109    0.000079
     11          6           0       -2.448393   -0.714527    0.000185
     12          8           0       -3.524186   -0.147926    0.000813
     13          8           0       -2.292867   -2.042745   -0.000501
     14          6           0       -3.517858   -2.794419   -0.000344
     15          7           0       -0.000000   -0.669071    0.000093
     16          1           0        4.107764   -2.564097    0.890112
     17          1           0        3.216366   -3.840743   -0.003612
     18          1           0        4.110834   -2.558835   -0.886912
     19          1           0        2.164102    1.921794   -0.000043
     20          1           0       -2.164099    1.921796    0.000063
     21          1           0       -3.216377   -3.840740   -0.000926
     22          1           0       -4.108950   -2.561845    0.888514
     23          1           0       -4.109666   -2.561057   -0.888519
 ---------------------------------------------------------------------

 SCF Done:  E(RM062X) =  -1163.64513441     A.U. after    1 cycles

      1  C    Isotropic =   129.9285   Anisotropy =    73.3522

      2  O    Isotropic =   130.9193   Anisotropy =   188.4639

      3  C    Isotropic =    -0.2841   Anisotropy =   103.6288

      4  O    Isotropic =  -132.9021   Anisotropy =   694.5857

      5  C    Isotropic =    12.7752   Anisotropy =   171.3413

      6  C    Isotropic =    33.6683   Anisotropy =   197.4985

      7  C    Isotropic =     6.8138   Anisotropy =   172.2011

      8  Cl   Isotropic =   653.6878   Anisotropy =   489.5743

      9  C    Isotropic =    33.6683   Anisotropy =   197.4985

     10  C    Isotropic =    12.7751   Anisotropy =   171.3413

     11  C    Isotropic =    -0.2841   Anisotropy =   103.6287

     12  O    Isotropic =  -132.9024   Anisotropy =   694.5853

     13  O    Isotropic =   130.9193   Anisotropy =   188.4635

     14  C    Isotropic =   129.9285   Anisotropy =    73.3520

     15  N    Isotropic =  -140.3057   Anisotropy =   657.5489

     16  H    Isotropic =    27.8777   Anisotropy =     8.0809

     17  H    Isotropic =    27.8777   Anisotropy =     7.4265

     18  H    Isotropic =    27.8696   Anisotropy =     8.0618

     19  H    Isotropic =    22.4677   Anisotropy =    12.1546

     20  H    Isotropic =    22.4677   Anisotropy =    12.1546

     21  H    Isotropic =    27.8777   Anisotropy =     7.4265

     22  H    Isotropic =    27.8737   Anisotropy =     8.0713

     23  H    Isotropic =    27.8737   Anisotropy =     8.0714

 The electronic state is 1-A.
 Alpha  occ. eigenvalues -- -102.66622 -19.68158 -19.68158 -19.62926 -19.62925
 Alpha  occ. eigenvalues --  -14.78140 -10.68777 -10.68776 -10.64054 -10.61577
 Alpha  occ. eigenvalues --  -10.61574 -10.59132 -10.59132 -10.58317 -10.58315
 Alpha  occ. eigenvalues --   -9.82863  -7.55067  -7.54548  -7.54520  -1.24463
 Alpha  occ. eigenvalues --   -1.24403  -1.15065  -1.15058  -1.08946  -0.99978
 Alpha  occ. eigenvalues --   -0.91455  -0.89761  -0.83839  -0.83093  -0.75493
 Alpha  occ. eigenvalues --   -0.75343  -0.67160  -0.65403  -0.62882  -0.61980
 Alpha  occ. eigenvalues --   -0.58682  -0.58088  -0.57933  -0.57452  -0.56719
 Alpha  occ. eigenvalues --   -0.55732  -0.51800  -0.51457  -0.50325  -0.48678
 Alpha  occ. eigenvalues --   -0.47920  -0.47121  -0.46936  -0.43947  -0.43782
 Alpha  occ. eigenvalues --   -0.43715  -0.39837  -0.39796  -0.38577  -0.38544
 Alpha  occ. eigenvalues --   -0.36982  -0.34858  -0.34706  -0.34447
 Alpha virt. eigenvalues --   -0.04768  -0.04117   0.04746   0.05332   0.08098
 Alpha virt. eigenvalues --    0.08661   0.10359   0.10456   0.11532   0.12031
 Alpha virt. eigenvalues --    0.13280   0.13569   0.14591   0.14771   0.15665

 Mulliken charges:
               1
     1  C   -0.277114
     2  O   -0.238398
     3  C    0.345683
     4  O   -0.362862
     5  C    0.099658
     6  C   -0.177350
     7  C    0.101266
     8  Cl  -0.053158
     9  C   -0.177350
    10  C    0.099658
    11  C    0.345682
    12  O   -0.362861
    13  O   -0.238398
    14  C   -0.277114
    15  N   -0.205745
    16  H    0.161848
    17  H    0.161414
    18  H    0.161821
    19  H    0.204119
    20  H    0.204119
    21  H    0.161414
    22  H    0.161837
    23  H    0.161832
 Sum of Mulliken charges =  -0.00000

 Dipole moment (field-independent basis, Debye):
    X=             -0.0000    Y=             -2.2804    Z=             -0.0016  Tot=              2.2804
 Quadrupole moment (field-independent basis, Debye-Ang):
   XX=            -94.4729   YY=            -80.8951   ZZ=            -91.3190
   XY=              0.0000   XZ=              0.0031   YZ=              0.0006

 Normal termination of Gaussian 16 at Tue Sep 17 11:03:07 2024.
