 Gaussian 16, Revision C.02,

 ----------------------------------------------------------------------
 #p B3LYP/6-31G(d,p) EmpiricalDispersion=GD3BJ opt freq scf(xqc,tight)
 integral(grid=ultrafine)
 ----------------------------------------------------------------------

 ----------------------------------
 opt-freq conformers_unique/conf_ah
 ----------------------------------
 Symbolic Z-matrix:
 Charge =  0 Multiplicity = 1

 SCF Done:  E(RB3LYP) =  -1163.67899918     A.U. after   15 cycles
 SCF Done:  E(RB3LYP) =  -1163.68085801     A.U. after   12 cycles
 SCF Done:  E(RB3LYP) =  -1163.68103949     A.U. after   12 cycles
 SCF Done:  E(RB3LYP) =  -1163.68097773     A.U. after   12 cycles
 SCF Done:  E(RB3LYP) =  -1163.68108084     A.U. after   11 cycles
 SCF Done:  E(RB3LYP) =  -1163.68112706     A.U. after   10 cycles
 SCF Done:  E(RB3LYP) =  -1163.68115561     A.U. after   11 cycles
 SCF Done:  E(RB3LYP) =  -1163.68117159     A.U. after   11 cycles
 SCF Done:  E(RB3LYP) =  -1163.68117571     A.U. after   12 cycles
 SCF Done:  E(RB3LYP) =  -1163.68119478     A.U. after   10 cycles
 SCF Done:  E(RB3LYP) =  -1163.68223778     A.U. after   11 cycles
 SCF Done:  E(RB3LYP) =  -1163.68224375     A.U. after   10 cycles
 SCF Done:  E(RB3LYP) =  -1163.68224495     A.U. after    8 cycles
 SCF Done:  E(RB3LYP) =  -1163.68224610     A.U. after    8 cycles
 SCF Done:  E(RB3LYP) =  -1163.68224645     A.U. after    7 cycles
 SCF Done:  E(RB3LYP) =  -1163.68224655     A.U. after    7 cycles
 SCF Done:  E(RB3LYP) =  -1163.68224657     A.U. after    7 cycles
 Optimization completed.
    -- Stationary point found.
 Normal termination of Gaussian 16 at Tue Sep 17 09:48:22 2024.

 ----------------------------------------------------------------------
 #P Geom=AllCheck Guess=TCheck SCRF=Check GenChk RB3LYP/6-31G(d,p) Freq
 ----------------------------------------------------------------------

 Structure from the checkpoint file:  "smiles_00058_conf_7.chk"
 ----------------------------------
 opt-freq conformers_unique/conf_ah
 ----------------------------------
 Charge =  0 Multiplicity = 1

 SCF Done:  E(RB3LYP) =  -1163.68224657     A.U. after    1 cycles

                      1                      2                      3
                      A                      A                      A
 Frequencies --     30.0138                39.8292                79.3366
 Red. masses --      6.2177                 6.4990                 4.4641
 Frc consts  --      0.0033                 0.0061                 0.0166
 IR Inten    --      2.5830                 1.5239                 0.3576

                      4                      5                      6
                      A                      A                      A
 Frequencies --     92.5185               113.9244               127.3204
 Red. masses --      4.7950                 2.0298                 1.1490
 Frc consts  --      0.0242                 0.0155                 0.0110
 IR Inten    --      1.3433                 0.0284                 0.3147

                      7                      8                      9
                      A                      A                      A
 Frequencies --    133.4859               136.2467               178.6763
 Red. masses --      1.3941                 7.3176                 5.3697
 Frc consts  --      0.0146                 0.0800                 0.1010
 IR Inten    --      0.0794                 0.5843                10.7278

                     10                     11                     12
                      A                      A                      A
 Frequencies --    204.1349               225.9061               238.8878
 Red. masses --      4.0725                 6.9721                 6.5418
 Frc consts  --      0.1000                 0.2096                 0.2200
 IR Inten    --      0.1423                 0.1044                 3.3757

                     13                     14                     15
                      A                      A                      A
 Frequencies --    288.6024               323.2883               351.9468
 Red. masses --      5.1105                 5.9699                 6.3788
 Frc consts  --      0.2508                 0.3676                 0.4655
 IR Inten    --     13.3793                 5.3085                10.4390

                     16                     17                     18
                      A                      A                      A
 Frequencies --    374.9605               405.7384               485.7488
 Red. masses --      7.7885                 7.9796                 9.3736
 Frc consts  --      0.6452                 0.7740                 1.3031
 IR Inten    --      8.2428                 3.9122                 6.7319

                     19                     20                     21
                      A                      A                      A
 Frequencies --    504.7335               540.8295               573.1045
 Red. masses --      6.2460                 6.6655                 6.6144
 Frc consts  --      0.9375                 1.1487                 1.2800
 IR Inten    --      0.0725                16.1842                 0.1006

                     22                     23                     24
                      A                      A                      A
 Frequencies --    700.3298               748.9754               772.6033
 Red. masses --      6.5177                 6.8380                 7.7507
 Frc consts  --      1.8834                 2.2600                 2.7259
 IR Inten    --     10.9498                24.3064                85.7185

                     25                     26                     27
                      A                      A                      A
 Frequencies --    785.2935               793.6463               860.8272
 Red. masses --      4.4492                 7.2707                 6.7992
 Frc consts  --      1.6166                 2.6983                 2.9685
 IR Inten    --     14.0990                 0.3973                28.2187

                     28                     29                     30
                      A                      A                      A
 Frequencies --    901.9611               919.9199               947.4339
 Red. masses --      6.1927                 1.5453                 1.4105
 Frc consts  --      2.9683                 0.7705                 0.7460
 IR Inten    --      5.0548                13.8575                 1.9683

                     31                     32                     33
                      A                      A                      A
 Frequencies --   1011.0774              1014.4369              1044.3149
 Red. masses --      7.2176                 7.1595                 8.3661
 Frc consts  --      4.3472                 4.3409                 5.3757
 IR Inten    --     34.4765                 3.2001                46.6252

                     34                     35                     36
                      A                      A                      A
 Frequencies --   1121.1389              1179.2706              1180.5035
 Red. masses --      1.4504                 1.2777                 1.2761
 Frc consts  --      1.0741                 1.0469                 1.0478
 IR Inten    --     14.6957                 0.8364                 0.8438

                     37                     38                     39
                      A                      A                      A
 Frequencies --   1181.2368              1189.7783              1217.7607
 Red. masses --      1.6741                 2.5617                 1.5184
 Frc consts  --      1.3763                 2.1365                 1.3267
 IR Inten    --     59.2862                18.2151                18.5630

                     40                     41                     42
                      A                      A                      A
 Frequencies --   1229.8591              1277.9323              1325.6276
 Red. masses --      2.6096                 4.1402                10.7134
 Frc consts  --      2.3256                 3.9837                11.0922
 IR Inten    --     83.2086               659.8628                 1.9688

                     43                     44                     45
                      A                      A                      A
 Frequencies --   1346.6079              1440.0735              1467.6038
 Red. masses --      5.2157                 3.3630                 2.9347
 Frc consts  --      5.5725                 4.1091                 3.7242
 IR Inten    --    349.5271                42.3348                10.0351

                     46                     47                     48
                      A                      A                      A
 Frequencies --   1482.8225              1486.4201              1495.2695
 Red. masses --      1.3030                 1.4531                 1.0461
 Frc consts  --      1.6880                 1.8916                 1.3781
 IR Inten    --     22.6395                24.0070                 6.8679

                     49                     50                     51
                      A                      A                      A
 Frequencies --   1496.8450              1507.2651              1509.7918
 Red. masses --      1.0464                 1.0576                 1.0513
 Frc consts  --      1.3813                 1.4156                 1.4119
 IR Inten    --      6.8028                 5.1800                 8.5452

                     52                     53                     54
                      A                      A                      A
 Frequencies --   1611.6343              1619.3704              1801.6922
 Red. masses --      6.3923                 9.6331                11.6601
 Frc consts  --      9.7822                14.8836                22.3004
 IR Inten    --    110.6983                14.7833               173.4503

                     55                     56                     57
                      A                      A                      A
 Frequencies --   1838.8183              3066.7354              3067.9140
 Red. masses --     12.0461                 1.0302                 1.0297
 Frc consts  --     23.9980                 5.7084                 5.7100
 IR Inten    --    189.2352                35.3973                31.7013

                     58                     59                     60
                      A                      A                      A
 Frequencies --   3143.8300              3146.4474              3180.1114
 Red. masses --      1.1069                 1.1071                 1.1073
 Frc consts  --      6.4460                 6.4576                 6.5980
 IR Inten    --     18.9725                17.8930                14.0406

                     61                     62                     63
                      A                      A                      A
 Frequencies --   3184.1034              3249.9705              3258.9877
 Red. masses --      1.1068                 1.0930                 1.0927
 Frc consts  --      6.6116                 6.8017                 6.8378
 IR Inten    --     12.7816                 5.1492                 2.1545

 - Thermochemistry -
 -------------------
 Temperature   298.150 Kelvin.  Pressure   1.00000 Atm.
 Atom     1 has atomic number  6 and mass  12.00000

 Molecular mass:   229.01419 amu.
 Principal axes and moments of inertia in atomic units:
                           1         2         3
     Eigenvalues --  3174.937294831.458177983.66553
           X            1.00000  -0.00250  -0.00000
           Y            0.00250   1.00000  -0.00000
           Z            0.00000   0.00000   1.00000
 This molecule is an asymmetric top.
 Rotational symmetry number  1.
 Warning -- assumption of classical behavior for rotation
           may cause significant error
 Rotational temperatures (Kelvin)      0.02728     0.01793     0.01085
 Rotational constants (GHZ):           0.56843     0.37354     0.22605
 Zero-point vibrational energy     432183.7 (Joules/Mol)
                                  103.29439 (Kcal/Mol)
 Warning -- explicit consideration of  21 degrees of freedom as
           vibrations may cause significant error
 Vibrational temperatures:     43.18    57.31   114.15   133.11   163.91
          (Kelvin)            183.19   192.06   196.03   257.08   293.70
                              325.03   343.71   415.23   465.14   506.37
                              539.48   583.77   698.88   726.20   778.13
                              824.57  1007.62  1077.61  1111.60  1129.86
                             1141.88  1238.54  1297.72  1323.56  1363.15
                             1454.71  1459.55  1502.54  1613.07  1696.71
                             1698.48  1699.54  1711.83  1752.09  1769.49
                             1838.66  1907.28  1937.47  2071.94  2111.55
                             2133.45  2138.63  2151.36  2153.63  2168.62
                             2172.25  2318.78  2329.91  2592.23  2645.65
                             4412.35  4414.04  4523.27  4527.04  4575.47
                             4581.21  4675.98  4688.96

 Zero-point correction=                           0.164610 (Hartree/Particle)
 Thermal correction to Energy=                    0.179232
 Thermal correction to Enthalpy=                  0.180176
 Thermal correction to Gibbs Free Energy=         0.120816
 Sum of electronic and zero-point Energies=          -1163.517636
 Sum of electronic and thermal Energies=             -1163.503015
 Sum of electronic and thermal Enthalpies=           -1163.502070
 Sum of electronic and thermal Free Energies=        -1163.561431

                     E (Thermal)             CV                S
                      KCal/Mol        Cal/Mol-Kelvin    Cal/Mol-Kelvin
 Total                  112.470             50.809            124.935
 Electronic               0.000              0.000              0.000
 Translational            0.889              2.981             42.188
 Rotational               0.889              2.981             33.171
 Vibrational            110.692             44.847             49.576
 Vibration     1          0.594              1.984              5.829
 Vibration     2          0.594              1.981              5.268
 Vibration     3          0.600              1.963              3.907
 Vibration     4          0.602              1.955              3.606
 Vibration     5          0.607              1.938              3.201
 Vibration     6          0.611              1.926              2.986
 Vibration     7          0.613              1.920              2.895
 Vibration     8          0.614              1.917              2.856
 Vibration     9          0.629              1.869              2.342
 Vibration    10          0.640              1.834              2.096
 Vibration    11          0.650              1.802              1.911
 Vibration    12          0.657              1.781              1.811
 Vibration    13          0.685              1.695              1.482
 Vibration    14          0.708              1.629              1.293
 Vibration    15          0.728              1.571              1.157
 Vibration    16          0.746              1.523              1.059
 Vibration    17          0.771              1.458              0.942
 Vibration    18          0.842              1.282              0.695
 Vibration    19          0.860              1.240              0.646
 Vibration    20          0.896              1.160              0.564
 Vibration    21          0.929              1.089              0.498

 Optimization completed.
    -- Stationary point found.
 Normal termination of Gaussian 16 at Tue Sep 17 09:50:31 2024.

 ----------------------------------------------------------------------
 #p M062X/def2tzvp geom=check guess=read scf(xqc,tight) integral(grid=u
 ltrafine) scrf(SMD, solvent=1,4-Dioxane) polar prop=efg volume
 ----------------------------------------------------------------------

 ---
 spe
 ---
 Structure from the checkpoint file:  "smiles_00058_conf_7.chk"
 Charge =  0 Multiplicity = 1

 SCF Done:  E(RM062X) =  -1163.64335066     A.U. after   12 cycles

  Exact polarizability:     191.516       3.041     187.902       0.001      -0.002      87.458
 Approx polarizability:     190.526       1.208     206.849       0.003      -0.004     108.503

 Normal termination of Gaussian 16 at Tue Sep 17 10:47:08 2024.
 Gaussian 16:  ES64L-G16RevC.02  7-Dec-2021

 ----------------------------------------------------------------------
 #p M062X/def2tzvp geom=check guess=read scf(xqc,tight) integral(grid=u
 ltrafine) scrf(SMD, solvent=1,4-Dioxane) nmr=giao
 ----------------------------------------------------------------------

 ---
 spe
 ---
 Structure from the checkpoint file:  "smiles_00058_conf_7.chk"
 Charge =  0 Multiplicity = 1

                         Standard orientation:
 ---------------------------------------------------------------------
 Center     Atomic      Atomic             Coordinates (Angstroms)
 Number     Number       Type             X           Y           Z
 ---------------------------------------------------------------------
      1          6           0       -4.149188   -2.151046    0.000161
      2          8           0       -2.796721   -1.664655    0.000210
      3          6           0       -2.676015   -0.334310   -0.000152
      4          8           0       -3.610759    0.443587   -0.000387
      5          6           0       -1.241842    0.122017   -0.000063
      6          6           0       -1.016303    1.503824   -0.000029
      7          6           0        0.303793    1.934679    0.000039
      8         17           0        0.669142    3.643291    0.000118
      9          6           0        1.338544    1.004035    0.000045
     10          6           0        0.990664   -0.352208   -0.000011
     11          6           0        2.050210   -1.423407    0.000003
     12          8           0        1.833605   -2.611215    0.000182
     13          8           0        3.289529   -0.880267   -0.000153
     14          6           0        4.365891   -1.832152   -0.000106
     15          7           0       -0.271112   -0.792664   -0.000048
     16          1           0       -4.680433   -1.802289    0.888834
     17          1           0       -4.680407   -1.802214   -0.888494
     18          1           0       -4.066695   -3.236699    0.000129
     19          1           0       -1.854375    2.188327   -0.000068
     20          1           0        2.375350    1.310038    0.000087
     21          1           0        4.313964   -2.465905   -0.888281
     22          1           0        5.280881   -1.241332   -0.000455
     23          1           0        4.314317   -2.465426    0.888431
 ---------------------------------------------------------------------

 SCF Done:  E(RM062X) =  -1163.64335066     A.U. after    1 cycles

      1  C    Isotropic =   129.8350   Anisotropy =    73.4269

      2  O    Isotropic =   130.2155   Anisotropy =   190.4127

      3  C    Isotropic =    -0.4270   Anisotropy =   103.4402

      4  O    Isotropic =  -132.2014   Anisotropy =   694.0606

      5  C    Isotropic =    11.7226   Anisotropy =   173.0120

      6  C    Isotropic =    34.3169   Anisotropy =   197.5216

      7  C    Isotropic =     7.4501   Anisotropy =   173.6076

      8  Cl   Isotropic =   654.3197   Anisotropy =   490.9734

      9  C    Isotropic =    34.1709   Anisotropy =   191.3163

     10  C    Isotropic =    12.8325   Anisotropy =   170.6696

     11  C    Isotropic =     4.2661   Anisotropy =    93.0259

     12  O    Isotropic =  -152.9507   Anisotropy =   740.5991

     13  O    Isotropic =   132.2600   Anisotropy =   173.8059

     14  C    Isotropic =   130.2458   Anisotropy =    72.8261

     15  N    Isotropic =  -148.6783   Anisotropy =   669.7041

     16  H    Isotropic =    27.8590   Anisotropy =     8.0789

     17  H    Isotropic =    27.8582   Anisotropy =     8.0773

     18  H    Isotropic =    27.8292   Anisotropy =     7.4968

     19  H    Isotropic =    22.4858   Anisotropy =    12.1667

     20  H    Isotropic =    22.6890   Anisotropy =    13.2112

     21  H    Isotropic =    27.8654   Anisotropy =     8.1222

     22  H    Isotropic =    27.9627   Anisotropy =     7.5062

     23  H    Isotropic =    27.8660   Anisotropy =     8.1233

 The electronic state is 1-A.
 Alpha  occ. eigenvalues -- -102.66730 -19.68327 -19.68030 -19.62850 -19.62828
 Alpha  occ. eigenvalues --  -14.78036 -10.68676 -10.68663 -10.64115 -10.61679
 Alpha  occ. eigenvalues --  -10.61553 -10.59331 -10.58979 -10.58526 -10.58315
 Alpha  occ. eigenvalues --   -9.82971  -7.55175  -7.54656  -7.54629  -1.24353
 Alpha  occ. eigenvalues --   -1.24293  -1.15143  -1.14962  -1.08875  -1.00043
 Alpha  occ. eigenvalues --   -0.91600  -0.89798  -0.84249  -0.82555  -0.76108
 Alpha  occ. eigenvalues --   -0.74633  -0.67011  -0.65775  -0.63429  -0.61021
 Alpha  occ. eigenvalues --   -0.58725  -0.58347  -0.57886  -0.57412  -0.56714
 Alpha  occ. eigenvalues --   -0.55496  -0.51826  -0.51517  -0.50073  -0.49357
 Alpha  occ. eigenvalues --   -0.47868  -0.47388  -0.46980  -0.44262  -0.43745
 Alpha  occ. eigenvalues --   -0.43660  -0.40096  -0.38724  -0.38709  -0.38430
 Alpha  occ. eigenvalues --   -0.36828  -0.35114  -0.34756  -0.34525
 Alpha virt. eigenvalues --   -0.04751  -0.04125   0.04853   0.05162   0.08026
 Alpha virt. eigenvalues --    0.08578   0.10336   0.10588   0.10996   0.12069
 Alpha virt. eigenvalues --    0.12727   0.13334   0.14701   0.15349   0.15665

 Mulliken charges:
               1
     1  C   -0.277092
     2  O   -0.233747
     3  C    0.344896
     4  O   -0.363910
     5  C    0.103713
     6  C   -0.176275
     7  C    0.093605
     8  Cl  -0.054182
     9  C   -0.161277
    10  C    0.086024
    11  C    0.325084
    12  O   -0.315839
    13  O   -0.275098
    14  C   -0.271384
    15  N   -0.196606
    16  H    0.161198
    17  H    0.161198
    18  H    0.163388
    19  H    0.204657
    20  H    0.196232
    21  H    0.163519
    22  H    0.158375
    23  H    0.163521
 Sum of Mulliken charges =  -0.00000

 Dipole moment (field-independent basis, Debye):
    X=              2.1793    Y=              0.6448    Z=              0.0002  Tot=              2.2726
 Quadrupole moment (field-independent basis, Debye-Ang):
   XX=            -73.9609   YY=            -97.3521   ZZ=            -91.3283
   XY=              6.2186   XZ=             -0.0027   YZ=              0.0017

 Normal termination of Gaussian 16 at Tue Sep 17 11:07:34 2024.
