 Gaussian 16, Revision C.02,

 ----------------------------------------------------------------------
 #p B3LYP/6-31G(d,p) EmpiricalDispersion=GD3BJ opt freq scf(xqc,tight)
 integral(grid=ultrafine)
 ----------------------------------------------------------------------

 ----------------------------------
 opt-freq conformers_unique/conf_ab
 ----------------------------------
 Symbolic Z-matrix:
 Charge =  0 Multiplicity = 1

 SCF Done:  E(RB3LYP) =  -1163.68032298     A.U. after   15 cycles
 SCF Done:  E(RB3LYP) =  -1163.68209868     A.U. after   12 cycles
 SCF Done:  E(RB3LYP) =  -1163.68221268     A.U. after   11 cycles
 SCF Done:  E(RB3LYP) =  -1163.68212777     A.U. after   12 cycles
 SCF Done:  E(RB3LYP) =  -1163.68222641     A.U. after   11 cycles
 SCF Done:  E(RB3LYP) =  -1163.68224207     A.U. after    9 cycles
 SCF Done:  E(RB3LYP) =  -1163.68224472     A.U. after   10 cycles
 SCF Done:  E(RB3LYP) =  -1163.68224599     A.U. after    8 cycles
 SCF Done:  E(RB3LYP) =  -1163.68224654     A.U. after    9 cycles
 Optimization completed.
    -- Stationary point found.
 Normal termination of Gaussian 16 at Tue Sep 17 09:45:13 2024.

 ----------------------------------------------------------------------
 #P Geom=AllCheck Guess=TCheck SCRF=Check GenChk RB3LYP/6-31G(d,p) Freq
 ----------------------------------------------------------------------

 Structure from the checkpoint file:  "smiles_00058_conf_1.chk"
 ----------------------------------
 opt-freq conformers_unique/conf_ab
 ----------------------------------
 Charge =  0 Multiplicity = 1

 SCF Done:  E(RB3LYP) =  -1163.68224654     A.U. after    1 cycles

                      1                      2                      3
                      A                      A                      A
 Frequencies --     29.9242                39.7771                79.3783
 Red. masses --      6.2134                 6.4867                 4.4619
 Frc consts  --      0.0033                 0.0060                 0.0166
 IR Inten    --      2.5815                 1.5233                 0.3583

                      4                      5                      6
                      A                      A                      A
 Frequencies --     92.5314               113.9197               127.1779
 Red. masses --      4.7955                 2.0162                 1.1482
 Frc consts  --      0.0242                 0.0154                 0.0109
 IR Inten    --      1.3440                 0.0279                 0.3166

                      7                      8                      9
                      A                      A                      A
 Frequencies --    133.3263               136.2544               178.6937
 Red. masses --      1.4030                 7.3100                 5.3709
 Frc consts  --      0.0147                 0.0800                 0.1010
 IR Inten    --      0.0775                 0.5840                10.7313

                     10                     11                     12
                      A                      A                      A
 Frequencies --    204.1459               225.8903               238.8908
 Red. masses --      4.0723                 6.9694                 6.5416
 Frc consts  --      0.1000                 0.2095                 0.2200
 IR Inten    --      0.1424                 0.1058                 3.3747

                     13                     14                     15
                      A                      A                      A
 Frequencies --    288.5973               323.2824               351.9110
 Red. masses --      5.1094                 5.9689                 6.3794
 Frc consts  --      0.2507                 0.3675                 0.4655
 IR Inten    --     13.3849                 5.3109                10.4397

                     16                     17                     18
                      A                      A                      A
 Frequencies --    374.9469               405.7363               485.7381
 Red. masses --      7.7902                 7.9793                 9.3737
 Frc consts  --      0.6453                 0.7739                 1.3031
 IR Inten    --      8.2431                 3.9096                 6.7329

                     19                     20                     21
                      A                      A                      A
 Frequencies --    504.7169               540.8128               573.0981
 Red. masses --      6.2453                 6.6664                 6.6141
 Frc consts  --      0.9374                 1.1488                 1.2799
 IR Inten    --      0.0723                16.1851                 0.1008

                     22                     23                     24
                      A                      A                      A
 Frequencies --    700.3151               748.9674               772.5877
 Red. masses --      6.5170                 6.8378                 7.7507
 Frc consts  --      1.8831                 2.2599                 2.7257
 IR Inten    --     10.9468                24.3005                85.7216

                     25                     26                     27
                      A                      A                      A
 Frequencies --    785.2759               793.6379               860.8175
 Red. masses --      4.4486                 7.2706                 6.7983
 Frc consts  --      1.6163                 2.6981                 2.9681
 IR Inten    --     14.1002                 0.3968                28.1913

                     28                     29                     30
                      A                      A                      A
 Frequencies --    901.9377               919.9075               947.4207
 Red. masses --      6.1925                 1.5454                 1.4105
 Frc consts  --      2.9680                 0.7705                 0.7460
 IR Inten    --      5.0523                13.8573                 1.9675

                     31                     32                     33
                      A                      A                      A
 Frequencies --   1010.8780              1014.4547              1044.1375
 Red. masses --      7.2199                 7.1621                 8.3701
 Frc consts  --      4.3469                 4.3426                 5.3764
 IR Inten    --     34.6229                 3.1638                46.6747

                     34                     35                     36
                      A                      A                      A
 Frequencies --   1121.1201              1179.1997              1180.4581
 Red. masses --      1.4502                 1.2777                 1.2761
 Frc consts  --      1.0740                 1.0468                 1.0477
 IR Inten    --     14.6999                 0.8399                 0.8551

                     37                     38                     39
                      A                      A                      A
 Frequencies --   1181.2118              1189.7366              1217.7275
 Red. masses --      1.6739                 2.5613                 1.5185
 Frc consts  --      1.3761                 2.1361                 1.3267
 IR Inten    --     59.2481                18.2383                18.5552

                     40                     41                     42
                      A                      A                      A
 Frequencies --   1229.8258              1277.8953              1325.7419
 Red. masses --      2.6098                 4.1388                10.7210
 Frc consts  --      2.3256                 3.9821                11.1020
 IR Inten    --     83.3401               659.4907                 1.9602

                     43                     44                     45
                      A                      A                      A
 Frequencies --   1346.5844              1440.0351              1467.6448
 Red. masses --      5.2136                 3.3615                 2.9236
 Frc consts  --      5.5700                 4.1071                 3.7103
 IR Inten    --    349.6098                42.2896                10.0361

                     46                     47                     48
                      A                      A                      A
 Frequencies --   1482.7775              1486.3804              1495.2549
 Red. masses --      1.3035                 1.4558                 1.0461
 Frc consts  --      1.6885                 1.8950                 1.3781
 IR Inten    --     22.7502                23.9366                 6.8683

                     49                     50                     51
                      A                      A                      A
 Frequencies --   1496.8232              1507.2314              1509.7692
 Red. masses --      1.0464                 1.0575                 1.0513
 Frc consts  --      1.3813                 1.4155                 1.4118
 IR Inten    --      6.8027                 5.1868                 8.5477

                     52                     53                     54
                      A                      A                      A
 Frequencies --   1611.6069              1619.4552              1801.7384
 Red. masses --      6.3886                 9.6434                11.6607
 Frc consts  --      9.7763                14.9012                22.3027
 IR Inten    --    110.9184                14.5988               173.4807

                     55                     56                     57
                      A                      A                      A
 Frequencies --   1838.9133              3066.8358              3067.9766
 Red. masses --     12.0470                 1.0302                 1.0297
 Frc consts  --     24.0022                 5.7087                 5.7102
 IR Inten    --    189.2638                35.4536                31.6157

                     58                     59                     60
                      A                      A                      A
 Frequencies --   3143.9865              3146.5412              3180.1966
 Red. masses --      1.1069                 1.1071                 1.1073
 Frc consts  --      6.4467                 6.4580                 6.5984
 IR Inten    --     18.9514                17.8897                14.0337

                     61                     62                     63
                      A                      A                      A
 Frequencies --   3184.2075              3250.0056              3259.0116
 Red. masses --      1.1068                 1.0930                 1.0927
 Frc consts  --      6.6121                 6.8018                 6.8379
 IR Inten    --     12.7660                 5.1497                 2.1538

 - Thermochemistry -
 -------------------
 Temperature   298.150 Kelvin.  Pressure   1.00000 Atm.
 Atom     1 has atomic number  6 and mass  12.00000

 Molecular mass:   229.01419 amu.
 Principal axes and moments of inertia in atomic units:
                           1         2         3
     Eigenvalues --  3174.973914831.464377983.70784
           X            1.00000   0.00249  -0.00000
           Y           -0.00249   1.00000   0.00000
           Z            0.00000  -0.00000   1.00000
 This molecule is an asymmetric top.
 Rotational symmetry number  1.
 Warning -- assumption of classical behavior for rotation
           may cause significant error
 Rotational temperatures (Kelvin)      0.02728     0.01793     0.01085
 Rotational constants (GHZ):           0.56843     0.37354     0.22605
 Zero-point vibrational energy     432180.8 (Joules/Mol)
                                  103.29368 (Kcal/Mol)
 Warning -- explicit consideration of  21 degrees of freedom as
           vibrations may cause significant error
 Vibrational temperatures:     43.05    57.23   114.21   133.13   163.91
          (Kelvin)            182.98   191.83   196.04   257.10   293.72
                              325.01   343.71   415.23   465.13   506.32
                              539.46   583.76   698.87   726.18   778.11
                              824.56  1007.60  1077.60  1111.58  1129.84
                             1141.87  1238.52  1297.69  1323.54  1363.13
                             1454.43  1459.57  1502.28  1613.04  1696.61
                             1698.42  1699.50  1711.77  1752.04  1769.45
                             1838.61  1907.45  1937.43  2071.89  2111.61
                             2133.39  2138.57  2151.34  2153.59  2168.57
                             2172.22  2318.74  2330.03  2592.30  2645.79
                             4412.49  4414.13  4523.50  4527.17  4575.59
                             4581.36  4676.03  4688.99

 Zero-point correction=                           0.164609 (Hartree/Particle)
 Thermal correction to Energy=                    0.179232
 Thermal correction to Enthalpy=                  0.180176
 Thermal correction to Gibbs Free Energy=         0.120810
 Sum of electronic and zero-point Energies=          -1163.517638
 Sum of electronic and thermal Energies=             -1163.503015
 Sum of electronic and thermal Enthalpies=           -1163.502071
 Sum of electronic and thermal Free Energies=        -1163.561437

                     E (Thermal)             CV                S
                      KCal/Mol        Cal/Mol-Kelvin    Cal/Mol-Kelvin
 Total                  112.470             50.810            124.947
 Electronic               0.000              0.000              0.000
 Translational            0.889              2.981             42.188
 Rotational               0.889              2.981             33.171
 Vibrational            110.692             44.849             49.588
 Vibration     1          0.594              1.984              5.834
 Vibration     2          0.594              1.981              5.270
 Vibration     3          0.600              1.963              3.906
 Vibration     4          0.602              1.955              3.606
 Vibration     5          0.607              1.938              3.201
 Vibration     6          0.611              1.926              2.988
 Vibration     7          0.613              1.920              2.897
 Vibration     8          0.614              1.917              2.856
 Vibration     9          0.629              1.869              2.342
 Vibration    10          0.640              1.834              2.095
 Vibration    11          0.650              1.802              1.911
 Vibration    12          0.657              1.781              1.811
 Vibration    13          0.685              1.695              1.482
 Vibration    14          0.708              1.629              1.293
 Vibration    15          0.728              1.571              1.158
 Vibration    16          0.746              1.523              1.059
 Vibration    17          0.771              1.458              0.942
 Vibration    18          0.842              1.282              0.695
 Vibration    19          0.860              1.240              0.646
 Vibration    20          0.896              1.160              0.564
 Vibration    21          0.929              1.089              0.498

                           ! Non-Optimized Parameters !
 Normal termination of Gaussian 16 at Tue Sep 17 09:47:08 2024.

 ----------------------------------------------------------------------
 #p M062X/def2tzvp geom=check guess=read scf(xqc,tight) integral(grid=u
 ltrafine) scrf(SMD, solvent=1,4-Dioxane) polar prop=efg volume
 ----------------------------------------------------------------------

 ---
 spe
 ---
 Structure from the checkpoint file:  "smiles_00058_conf_1.chk"
 Charge =  0 Multiplicity = 1

 SCF Done:  E(RM062X) =  -1163.64335199     A.U. after   12 cycles

  Exact polarizability:     191.516      -3.040     187.901       0.004       0.000      87.458
 Approx polarizability:     190.526      -1.207     206.845       0.003      -0.002     108.503

 Normal termination of Gaussian 16 at Tue Sep 17 10:47:10 2024.
 Gaussian 16:  ES64L-G16RevC.02  7-Dec-2021

 ----------------------------------------------------------------------
 #p M062X/def2tzvp geom=check guess=read scf(xqc,tight) integral(grid=u
 ltrafine) scrf(SMD, solvent=1,4-Dioxane) nmr=giao
 ----------------------------------------------------------------------

 ---
 spe
 ---
 Structure from the checkpoint file:  "smiles_00058_conf_1.chk"
 Charge =  0 Multiplicity = 1

                         Standard orientation:
 ---------------------------------------------------------------------
 Center     Atomic      Atomic             Coordinates (Angstroms)
 Number     Number       Type             X           Y           Z
 ---------------------------------------------------------------------
      1          6           0        4.149201   -2.151173   -0.000044
      2          8           0        2.796684   -1.664639    0.000176
      3          6           0        2.676045   -0.334312    0.000057
      4          8           0        3.610748    0.443625   -0.000155
      5          6           0        1.241850    0.122020    0.000031
      6          6           0        1.016330    1.503850    0.000041
      7          6           0       -0.303766    1.934679    0.000006
      8         17           0       -0.669138    3.643294    0.000003
      9          6           0       -1.338538    1.004054   -0.000019
     10          6           0       -0.990661   -0.352196    0.000019
     11          6           0       -2.050212   -1.423418   -0.000027
     12          8           0       -1.833590   -2.611205   -0.000094
     13          8           0       -3.289531   -0.880265   -0.000028
     14          6           0       -4.365936   -1.832203    0.000049
     15          7           0        0.271111   -0.792572    0.000026
     16          1           0        4.680089   -1.803608    0.889300
     17          1           0        4.066521   -3.236804   -0.001475
     18          1           0        4.680725   -1.801213   -0.888049
     19          1           0        1.854403    2.188347    0.000054
     20          1           0       -2.375336    1.310073   -0.000070
     21          1           0       -4.313216   -2.466704    0.887622
     22          1           0       -5.280891   -1.241344    0.001634
     23          1           0       -4.315095   -2.464670   -0.889106
 ---------------------------------------------------------------------

 SCF Done:  E(RM062X) =  -1163.64335199     A.U. after    1 cycles

      1  C    Isotropic =   129.8254   Anisotropy =    73.4468

      2  O    Isotropic =   130.2156   Anisotropy =   190.3906

      3  C    Isotropic =    -0.4228   Anisotropy =   103.4371

      4  O    Isotropic =  -132.1650   Anisotropy =   693.9932

      5  C    Isotropic =    11.7288   Anisotropy =   173.0015

      6  C    Isotropic =    34.3157   Anisotropy =   197.5263

      7  C    Isotropic =     7.4526   Anisotropy =   173.6007

      8  Cl   Isotropic =   654.3218   Anisotropy =   490.9971

      9  C    Isotropic =    34.1684   Anisotropy =   191.3186

     10  C    Isotropic =    12.8389   Anisotropy =   170.6587

     11  C    Isotropic =     4.2698   Anisotropy =    93.0197

     12  O    Isotropic =  -152.9251   Anisotropy =   740.5554

     13  O    Isotropic =   132.2509   Anisotropy =   173.8167

     14  C    Isotropic =   130.2387   Anisotropy =    72.8377

     15  N    Isotropic =  -148.6464   Anisotropy =   669.6761

     16  H    Isotropic =    27.8603   Anisotropy =     8.0816

     17  H    Isotropic =    27.8290   Anisotropy =     7.4966

     18  H    Isotropic =    27.8565   Anisotropy =     8.0735

     19  H    Isotropic =    22.4857   Anisotropy =    12.1669

     20  H    Isotropic =    22.6891   Anisotropy =    13.2111

     21  H    Isotropic =    27.8635   Anisotropy =     8.1181

     22  H    Isotropic =    27.9627   Anisotropy =     7.5060

     23  H    Isotropic =    27.8677   Anisotropy =     8.1266

 The electronic state is 1-A.
 Alpha  occ. eigenvalues -- -102.66730 -19.68327 -19.68030 -19.62850 -19.62828
 Alpha  occ. eigenvalues --  -14.78034 -10.68676 -10.68663 -10.64114 -10.61679
 Alpha  occ. eigenvalues --  -10.61552 -10.59332 -10.58980 -10.58526 -10.58314
 Alpha  occ. eigenvalues --   -9.82971  -7.55174  -7.54656  -7.54628  -1.24352
 Alpha  occ. eigenvalues --   -1.24292  -1.15143  -1.14962  -1.08876  -1.00042
 Alpha  occ. eigenvalues --   -0.91600  -0.89798  -0.84249  -0.82555  -0.76109
 Alpha  occ. eigenvalues --   -0.74633  -0.67011  -0.65775  -0.63428  -0.61021
 Alpha  occ. eigenvalues --   -0.58725  -0.58346  -0.57885  -0.57411  -0.56714
 Alpha  occ. eigenvalues --   -0.55496  -0.51826  -0.51516  -0.50073  -0.49356
 Alpha  occ. eigenvalues --   -0.47869  -0.47388  -0.46981  -0.44263  -0.43745
 Alpha  occ. eigenvalues --   -0.43661  -0.40096  -0.38724  -0.38709  -0.38430
 Alpha  occ. eigenvalues --   -0.36828  -0.35112  -0.34755  -0.34524
 Alpha virt. eigenvalues --   -0.04751  -0.04124   0.04853   0.05163   0.08026
 Alpha virt. eigenvalues --    0.08577   0.10337   0.10588   0.10995   0.12069
 Alpha virt. eigenvalues --    0.12725   0.13334   0.14700   0.15349   0.15665

 Mulliken charges:
               1
     1  C   -0.277075
     2  O   -0.233748
     3  C    0.344900
     4  O   -0.363907
     5  C    0.103673
     6  C   -0.176295
     7  C    0.093618
     8  Cl  -0.054201
     9  C   -0.161291
    10  C    0.086004
    11  C    0.325074
    12  O   -0.315820
    13  O   -0.275110
    14  C   -0.271370
    15  N   -0.196571
    16  H    0.161214
    17  H    0.163393
    18  H    0.161202
    19  H    0.204656
    20  H    0.196229
    21  H    0.163522
    22  H    0.158376
    23  H    0.163527
 Sum of Mulliken charges =  -0.00000

 Dipole moment (field-independent basis, Debye):
    X=             -2.1787    Y=              0.6434    Z=              0.0003  Tot=              2.2717
 Quadrupole moment (field-independent basis, Debye-Ang):
   XX=            -73.9560   YY=            -97.3507   ZZ=            -91.3280
   XY=             -6.2198   XZ=             -0.0002   YZ=              0.0003

 Normal termination of Gaussian 16 at Tue Sep 17 11:09:26 2024.
