 Gaussian 16, Revision C.02,

 ----------------------------------------------------------------------
 #p B3LYP/6-31G(d,p) EmpiricalDispersion=GD3BJ opt freq scf(xqc,tight)
 integral(grid=ultrafine)
 ----------------------------------------------------------------------

 ----------------------------------
 opt-freq conformers_unique/conf_ad
 ----------------------------------
 Symbolic Z-matrix:
 Charge =  0 Multiplicity = 1

 SCF Done:  E(RB3LYP) =  -1163.67625654     A.U. after   15 cycles
 SCF Done:  E(RB3LYP) =  -1163.67837994     A.U. after   13 cycles
 SCF Done:  E(RB3LYP) =  -1163.67886636     A.U. after   12 cycles
 SCF Done:  E(RB3LYP) =  -1163.67862671     A.U. after   14 cycles
 SCF Done:  E(RB3LYP) =  -1163.67925556     A.U. after   13 cycles
 SCF Done:  E(RB3LYP) =  -1163.67934123     A.U. after   12 cycles
 SCF Done:  E(RB3LYP) =  -1163.67935323     A.U. after   11 cycles
 SCF Done:  E(RB3LYP) =  -1163.67935381     A.U. after    9 cycles
 SCF Done:  E(RB3LYP) =  -1163.67935536     A.U. after    9 cycles
 SCF Done:  E(RB3LYP) =  -1163.67935546     A.U. after    8 cycles
 Optimization completed.
    -- Stationary point found.
 Normal termination of Gaussian 16 at Tue Sep 17 09:45:04 2024.

 ----------------------------------------------------------------------
 #P Geom=AllCheck Guess=TCheck SCRF=Check GenChk RB3LYP/6-31G(d,p) Freq
 ----------------------------------------------------------------------

 Structure from the checkpoint file:  "smiles_00058_conf_3.chk"
 ----------------------------------
 opt-freq conformers_unique/conf_ad
 ----------------------------------
 Charge =  0 Multiplicity = 1

 SCF Done:  E(RB3LYP) =  -1163.67935546     A.U. after    1 cycles

                      1                      2                      3
                      A                      A                      A
 Frequencies --     28.2608                28.4077                80.0613
 Red. masses --      7.3492                 5.5943                 4.4062
 Frc consts  --      0.0035                 0.0027                 0.0166
 IR Inten    --      0.0003                 3.5575                 0.3434

                      4                      5                      6
                      A                      A                      A
 Frequencies --     98.2003               111.5771               127.5793
 Red. masses --      4.9817                 2.3740                 1.1352
 Frc consts  --      0.0283                 0.0174                 0.0109
 IR Inten    --      1.5026                 0.0000                 0.4301

                      7                      8                      9
                      A                      A                      A
 Frequencies --    130.1440               132.6908               177.0535
 Red. masses --      1.2747                 7.3752                 5.2875
 Frc consts  --      0.0127                 0.0765                 0.0977
 IR Inten    --      0.0000                 0.0003                10.8117

                     10                     11                     12
                      A                      A                      A
 Frequencies --    197.5080               226.6254               256.9122
 Red. masses --      3.9752                 7.0652                 5.4366
 Frc consts  --      0.0914                 0.2138                 0.2114
 IR Inten    --      0.0000                 0.1599                 9.2766

                     13                     14                     15
                      A                      A                      A
 Frequencies --    267.5179               325.8868               353.6401
 Red. masses --      6.7810                 4.6088                 6.6917
 Frc consts  --      0.2859                 0.2884                 0.4931
 IR Inten    --      1.8693                 0.0000                25.8297

                     16                     17                     18
                      A                      A                      A
 Frequencies --    380.0493               400.2180               489.9047
 Red. masses --     13.4999                 6.7047                 9.8230
 Frc consts  --      1.1488                 0.6327                 1.3891
 IR Inten    --      0.1610                 0.0371                 2.7578

                     19                     20                     21
                      A                      A                      A
 Frequencies --    506.9025               535.0003               560.5721
 Red. masses --      6.2862                 6.5584                 6.0826
 Frc consts  --      0.9517                 1.1060                 1.1262
 IR Inten    --      0.0000                16.6053                 1.2490

                     22                     23                     24
                      A                      A                      A
 Frequencies --    699.1009               747.0987               771.0313
 Red. masses --      6.4745                 6.8119                 7.3356
 Frc consts  --      1.8644                 2.2401                 2.5694
 IR Inten    --     10.9501                23.2261                87.5481

                     25                     26                     27
                      A                      A                      A
 Frequencies --    784.9663               791.3149               863.9478
 Red. masses --      4.3650                 7.2735                 7.2635
 Frc consts  --      1.5847                 2.6834                 3.1943
 IR Inten    --     13.6825                 0.0001                13.2192

                     28                     29                     30
                      A                      A                      A
 Frequencies --    891.0074               915.0449               935.4519
 Red. masses --      5.9564                 1.5765                 1.4097
 Frc consts  --      2.7861                 0.7778                 0.7268
 IR Inten    --      2.3021                15.4131                 0.0000

                     31                     32                     33
                      A                      A                      A
 Frequencies --   1006.4936              1014.2843              1051.7771
 Red. masses --      7.2817                 7.4444                 9.1514
 Frc consts  --      4.3462                 4.5123                 5.9646
 IR Inten    --     31.3135                 1.3021                85.6845

                     34                     35                     36
                      A                      A                      A
 Frequencies --   1124.0892              1180.5858              1180.6174
 Red. masses --      1.5595                 1.2762                 1.2762
 Frc consts  --      1.1610                 1.0480                 1.0481
 IR Inten    --      3.7975                 0.0000                 1.6955

                     37                     38                     39
                      A                      A                      A
 Frequencies --   1187.1300              1190.0160              1220.2562
 Red. masses --      1.6195                 2.7660                 1.5291
 Frc consts  --      1.3447                 2.3078                 1.3415
 IR Inten    --     47.9443                 0.5360                32.8473

                     40                     41                     42
                      A                      A                      A
 Frequencies --   1225.1984              1264.9865              1317.1851
 Red. masses --      2.2657                 4.8437                 5.3744
 Frc consts  --      2.0039                 4.5667                 5.4938
 IR Inten    --      4.3539              1082.8782                52.7791

                     43                     44                     45
                      A                      A                      A
 Frequencies --   1325.3600              1429.6506              1470.1111
 Red. masses --     11.4253                 3.5945                 2.3835
 Frc consts  --     11.8246                 4.3286                 3.0351
 IR Inten    --      2.8222                 0.0278                 5.8162

                     46                     47                     48
                      A                      A                      A
 Frequencies --   1481.3564              1485.6076              1495.2574
 Red. masses --      1.2021                 1.6100                 1.0461
 Frc consts  --      1.5543                 2.0936                 1.3780
 IR Inten    --     15.3558                 1.6521                 0.0038

                     49                     50                     51
                      A                      A                      A
 Frequencies --   1495.2684              1509.8038              1509.9590
 Red. masses --      1.0461                 1.0504                 1.0515
 Frc consts  --      1.3780                 1.4108                 1.4125
 IR Inten    --     13.4358                11.5600                 6.7595

                     52                     53                     54
                      A                      A                      A
 Frequencies --   1607.6888              1620.9175              1837.0529
 Red. masses --      6.0623                 9.9784                12.0741
 Frc consts  --      9.2318                15.4467                24.0076
 IR Inten    --    150.1285                 4.8640                 1.9819

                     55                     56                     57
                      A                      A                      A
 Frequencies --   1845.1549              3067.8851              3068.0358
 Red. masses --     12.0536                 1.0296                 1.0297
 Frc consts  --     24.1787                 5.7095                 5.7104
 IR Inten    --    358.5101                62.5852                 5.8145

                     58                     59                     60
                      A                      A                      A
 Frequencies --   3146.6145              3146.6358              3179.8579
 Red. masses --      1.1071                 1.1071                 1.1074
 Frc consts  --      6.4583                 6.4585                 6.5972
 IR Inten    --      0.0118                34.8751                14.0833

                     61                     62                     63
                      A                      A                      A
 Frequencies --   3179.8844              3259.4424              3259.7741
 Red. masses --      1.1074                 1.0934                 1.0922
 Frc consts  --      6.5973                 6.8440                 6.8379
 IR Inten    --     14.3371                 0.6212                 3.6479

 - Thermochemistry -
 -------------------
 Temperature   298.150 Kelvin.  Pressure   1.00000 Atm.
 Atom     1 has atomic number  6 and mass  12.00000

 Molecular mass:   229.01419 amu.
 Principal axes and moments of inertia in atomic units:
                           1         2         3
     Eigenvalues --  2773.443185344.806898095.53076
           X            1.00000   0.00000   0.00000
           Y           -0.00000   1.00000  -0.00000
           Z           -0.00000   0.00000   1.00000
 This molecule is an asymmetric top.
 Rotational symmetry number  1.
 Warning -- assumption of classical behavior for rotation
           may cause significant error
 Rotational temperatures (Kelvin)      0.03123     0.01621     0.01070
 Rotational constants (GHZ):           0.65072     0.33766     0.22293
 Zero-point vibrational energy     431837.6 (Joules/Mol)
                                  103.21167 (Kcal/Mol)
 Warning -- explicit consideration of  21 degrees of freedom as
           vibrations may cause significant error
 Vibrational temperatures:     40.66    40.87   115.19   141.29   160.53
          (Kelvin)            183.56   187.25   190.91   254.74   284.17
                              326.06   369.64   384.90   468.88   508.81
                              546.81   575.82   704.86   729.32   769.75
                              806.54  1005.85  1074.91  1109.34  1129.39
                             1138.53  1243.03  1281.96  1316.55  1345.91
                             1448.12  1459.33  1513.27  1617.31  1698.60
                             1698.65  1708.02  1712.17  1755.68  1762.79
                             1820.03  1895.14  1906.90  2056.95  2115.16
                             2131.34  2137.46  2151.34  2151.36  2172.27
                             2172.49  2313.11  2332.14  2643.11  2654.77
                             4414.00  4414.22  4527.28  4527.31  4575.11
                             4575.14  4689.61  4690.09

 Zero-point correction=                           0.164478 (Hartree/Particle)
 Thermal correction to Energy=                    0.179157
 Thermal correction to Enthalpy=                  0.180101
 Thermal correction to Gibbs Free Energy=         0.120329
 Sum of electronic and zero-point Energies=          -1163.514877
 Sum of electronic and thermal Energies=             -1163.500199
 Sum of electronic and thermal Enthalpies=           -1163.499255
 Sum of electronic and thermal Free Energies=        -1163.559027

                     E (Thermal)             CV                S
                      KCal/Mol        Cal/Mol-Kelvin    Cal/Mol-Kelvin
 Total                  112.423             50.909            125.801
 Electronic               0.000              0.000              0.000
 Translational            0.889              2.981             42.188
 Rotational               0.889              2.981             33.150
 Vibrational            110.645             44.948             50.463
 Vibration     1          0.593              1.984              5.948
 Vibration     2          0.593              1.984              5.938
 Vibration     3          0.600              1.963              3.889
 Vibration     4          0.604              1.950              3.490
 Vibration     5          0.607              1.940              3.241
 Vibration     6          0.611              1.926              2.982
 Vibration     7          0.612              1.923              2.944
 Vibration     8          0.613              1.921              2.907
 Vibration     9          0.628              1.871              2.359
 Vibration    10          0.637              1.843              2.156
 Vibration    11          0.650              1.800              1.906
 Vibration    12          0.666              1.751              1.683
 Vibration    13          0.673              1.733              1.612
 Vibration    14          0.710              1.624              1.280
 Vibration    15          0.730              1.568              1.150
 Vibration    16          0.750              1.513              1.039
 Vibration    17          0.766              1.470              0.962
 Vibration    18          0.846              1.272              0.684
 Vibration    19          0.862              1.235              0.641
 Vibration    20          0.890              1.173              0.576
 Vibration    21          0.916              1.117              0.523

                           ! Non-Optimized Parameters !
 Normal termination of Gaussian 16 at Tue Sep 17 09:47:08 2024.

 ----------------------------------------------------------------------
 #p M062X/def2tzvp geom=check guess=read scf(xqc,tight) integral(grid=u
 ltrafine) scrf(SMD, solvent=1,4-Dioxane) polar prop=efg volume
 ----------------------------------------------------------------------

 ---
 spe
 ---
 Structure from the checkpoint file:  "smiles_00058_conf_3.chk"
 Charge =  0 Multiplicity = 1

 SCF Done:  E(RM062X) =  -1163.64117775     A.U. after   12 cycles

  Exact polarizability:     197.019      -0.000     182.397      -0.014       0.004      87.521
 Approx polarizability:     186.870      -0.000     210.414      -0.015       0.007     108.519

 Normal termination of Gaussian 16 at Tue Sep 17 10:47:43 2024.
 Gaussian 16:  ES64L-G16RevC.02  7-Dec-2021

 ----------------------------------------------------------------------
 #p M062X/def2tzvp geom=check guess=read scf(xqc,tight) integral(grid=u
 ltrafine) scrf(SMD, solvent=1,4-Dioxane) nmr=giao
 ----------------------------------------------------------------------

 ---
 spe
 ---
 Structure from the checkpoint file:  "smiles_00058_conf_3.chk"
 Charge =  0 Multiplicity = 1

                         Standard orientation:
 ---------------------------------------------------------------------
 Center     Atomic      Atomic             Coordinates (Angstroms)
 Number     Number       Type             X           Y           Z
 ---------------------------------------------------------------------
      1          6           0        4.751544   -1.052427    0.000301
      2          8           0        3.500910   -0.344792   -0.000005
      3          6           0        2.401742   -1.134758    0.000005
      4          8           0        2.437073   -2.341044    0.000028
      5          6           0        1.142402   -0.306016   -0.000081
      6          6           0        1.204443    1.093427   -0.000111
      7          6           0        0.000000    1.787585   -0.000064
      8         17           0       -0.000001    3.535610   -0.000106
      9          6           0       -1.204444    1.093426    0.000020
     10          6           0       -1.142402   -0.306016    0.000023
     11          6           0       -2.401741   -1.134759   -0.000082
     12          8           0       -2.437073   -2.341045   -0.000768
     13          8           0       -3.500909   -0.344793    0.000646
     14          6           0       -4.751543   -1.052428    0.000221
     15          7           0        0.000000   -0.996165   -0.000032
     16          1           0        4.834053   -1.680239   -0.889792
     17          1           0        5.523959   -0.284515    0.004005
     18          1           0        4.830628   -1.685678    0.886797
     19          1           0        2.155665    1.606925   -0.000190
     20          1           0       -2.155665    1.606925    0.000107
     21          1           0       -5.523959   -0.284516   -0.003102
     22          1           0       -4.830732   -1.685355   -0.886497
     23          1           0       -4.833948   -1.680566    0.890095
 ---------------------------------------------------------------------

 SCF Done:  E(RM062X) =  -1163.64117775     A.U. after    1 cycles

      1  C    Isotropic =   130.2668   Anisotropy =    72.9880

      2  O    Isotropic =   132.4536   Anisotropy =   174.0668

      3  C    Isotropic =     4.6718   Anisotropy =    92.4511

      4  O    Isotropic =  -154.9230   Anisotropy =   743.2601

      5  C    Isotropic =    12.1165   Anisotropy =   173.0927

      6  C    Isotropic =    34.5577   Anisotropy =   191.1406

      7  C    Isotropic =     7.2001   Anisotropy =   172.6074

      8  Cl   Isotropic =   654.5791   Anisotropy =   492.9830

      9  C    Isotropic =    34.5577   Anisotropy =   191.1405

     10  C    Isotropic =    12.1166   Anisotropy =   173.0926

     11  C    Isotropic =     4.6717   Anisotropy =    92.4512

     12  O    Isotropic =  -154.9234   Anisotropy =   743.2604

     13  O    Isotropic =   132.4535   Anisotropy =   174.0671

     14  C    Isotropic =   130.2668   Anisotropy =    72.9880

     15  N    Isotropic =  -156.8673   Anisotropy =   681.7974

     16  H    Isotropic =    27.8661   Anisotropy =     8.1481

     17  H    Isotropic =    27.9592   Anisotropy =     7.4914

     18  H    Isotropic =    27.8565   Anisotropy =     8.1277

     19  H    Isotropic =    22.6868   Anisotropy =    13.2958

     20  H    Isotropic =    22.6868   Anisotropy =    13.2958

     21  H    Isotropic =    27.9592   Anisotropy =     7.4914

     22  H    Isotropic =    27.8562   Anisotropy =     8.1269

     23  H    Isotropic =    27.8664   Anisotropy =     8.1488

 The electronic state is 1-A.
 Alpha  occ. eigenvalues -- -102.66840 -19.68237 -19.68236 -19.62749 -19.62749
 Alpha  occ. eigenvalues --  -14.77958 -10.68558 -10.68557 -10.64176 -10.61671
 Alpha  occ. eigenvalues --  -10.61669 -10.59239 -10.59239 -10.58526 -10.58524
 Alpha  occ. eigenvalues --   -9.83080  -7.55283  -7.54765  -7.54738  -1.24234
 Alpha  occ. eigenvalues --   -1.24188  -1.15100  -1.15012  -1.08817  -1.00107
 Alpha  occ. eigenvalues --   -0.91717  -0.89899  -0.84490  -0.82104  -0.76776
 Alpha  occ. eigenvalues --   -0.73971  -0.66859  -0.66109  -0.63648  -0.60292
 Alpha  occ. eigenvalues --   -0.59029  -0.58910  -0.57838  -0.57407  -0.56215
 Alpha  occ. eigenvalues --   -0.55449  -0.51870  -0.51558  -0.49989  -0.49673
 Alpha  occ. eigenvalues --   -0.47865  -0.47818  -0.47054  -0.44297  -0.44019
 Alpha  occ. eigenvalues --   -0.43712  -0.40326  -0.38643  -0.38609  -0.37532
 Alpha  occ. eigenvalues --   -0.36543  -0.35701  -0.34780  -0.34633
 Alpha virt. eigenvalues --   -0.04735  -0.04148   0.04963   0.05001   0.08047
 Alpha virt. eigenvalues --    0.08273   0.10322   0.10590   0.11088   0.11569
 Alpha virt. eigenvalues --    0.12201   0.12976   0.15199   0.15380   0.15669

 Mulliken charges:
               1
     1  C   -0.272063
     2  O   -0.275779
     3  C    0.323660
     4  O   -0.311144
     5  C    0.090766
     6  C   -0.156829
     7  C    0.082609
     8  Cl  -0.055216
     9  C   -0.156829
    10  C    0.090766
    11  C    0.323661
    12  O   -0.311144
    13  O   -0.275779
    14  C   -0.272063
    15  N   -0.189287
    16  H    0.163989
    17  H    0.157708
    18  H    0.163991
    19  H    0.196647
    20  H    0.196648
    21  H    0.157708
    22  H    0.163989
    23  H    0.163991
 Sum of Mulliken charges =  -0.00000

 Dipole moment (field-independent basis, Debye):
    X=              0.0000    Y=              4.4968    Z=              0.0011  Tot=              4.4968
 Quadrupole moment (field-independent basis, Debye-Ang):
   XX=            -59.6157   YY=           -109.2162   ZZ=            -91.3342
   XY=             -0.0000   XZ=              0.0012   YZ=             -0.0044

 Normal termination of Gaussian 16 at Tue Sep 17 11:10:18 2024.
