 Gaussian 16, Revision C.02,

 ----------------------------------------------------------------------
 #p B3LYP/6-31G(d,p) EmpiricalDispersion=GD3BJ opt freq scf(xqc,tight)
 integral(grid=ultrafine)
 ----------------------------------------------------------------------

 ----------------------------------
 opt-freq conformers_unique/conf_ac
 ----------------------------------
 Symbolic Z-matrix:
 Charge =  0 Multiplicity = 1

 SCF Done:  E(RB3LYP) =  -1163.67913872     A.U. after   15 cycles
 SCF Done:  E(RB3LYP) =  -1163.68096420     A.U. after   12 cycles
 SCF Done:  E(RB3LYP) =  -1163.68109438     A.U. after   11 cycles
 SCF Done:  E(RB3LYP) =  -1163.68100811     A.U. after   12 cycles
 SCF Done:  E(RB3LYP) =  -1163.68119942     A.U. after   11 cycles
 SCF Done:  E(RB3LYP) =  -1163.68125109     A.U. after   10 cycles
 SCF Done:  E(RB3LYP) =  -1163.68150358     A.U. after   13 cycles
 SCF Done:  E(RB3LYP) =  -1163.68170263     A.U. after   12 cycles
 SCF Done:  E(RB3LYP) =  -1163.68207209     A.U. after   12 cycles
 SCF Done:  E(RB3LYP) =  -1163.68213879     A.U. after   11 cycles
 SCF Done:  E(RB3LYP) =  -1163.68217692     A.U. after   13 cycles
 SCF Done:  E(RB3LYP) =  -1163.68222489     A.U. after   11 cycles
 SCF Done:  E(RB3LYP) =  -1163.68224339     A.U. after   11 cycles
 SCF Done:  E(RB3LYP) =  -1163.68224606     A.U. after   10 cycles
 SCF Done:  E(RB3LYP) =  -1163.68224642     A.U. after    9 cycles
 SCF Done:  E(RB3LYP) =  -1163.68224655     A.U. after    8 cycles
 Optimization completed.
    -- Stationary point found.
 Normal termination of Gaussian 16 at Tue Sep 17 09:46:41 2024.

 ----------------------------------------------------------------------
 #P Geom=AllCheck Guess=TCheck SCRF=Check GenChk RB3LYP/6-31G(d,p) Freq
 ----------------------------------------------------------------------

 Structure from the checkpoint file:  "smiles_00058_conf_2.chk"
 ----------------------------------
 opt-freq conformers_unique/conf_ac
 ----------------------------------
 Charge =  0 Multiplicity = 1

 SCF Done:  E(RB3LYP) =  -1163.68224655     A.U. after    1 cycles

                      1                      2                      3
                      A                      A                      A
 Frequencies --     29.9923                39.8714                79.3734
 Red. masses --      6.2193                 6.4936                 4.4679
 Frc consts  --      0.0033                 0.0061                 0.0166
 IR Inten    --      2.5823                 1.5276                 0.3551

                      4                      5                      6
                      A                      A                      A
 Frequencies --     92.5253               113.9672               127.3541
 Red. masses --      4.7953                 2.0298                 1.1478
 Frc consts  --      0.0242                 0.0155                 0.0110
 IR Inten    --      1.3434                 0.0281                 0.3164

                      7                      8                      9
                      A                      A                      A
 Frequencies --    133.4633               136.2546               178.6922
 Red. masses --      1.3957                 7.3143                 5.3704
 Frc consts  --      0.0146                 0.0800                 0.1010
 IR Inten    --      0.0781                 0.5839                10.7278

                     10                     11                     12
                      A                      A                      A
 Frequencies --    204.1445               225.9075               238.8955
 Red. masses --      4.0724                 6.9712                 6.5421
 Frc consts  --      0.1000                 0.2096                 0.2200
 IR Inten    --      0.1418                 0.1048                 3.3747

                     13                     14                     15
                      A                      A                      A
 Frequencies --    288.6169               323.2953               351.9517
 Red. masses --      5.1106                 5.9710                 6.3773
 Frc consts  --      0.2508                 0.3677                 0.4654
 IR Inten    --     13.3775                 5.3097                10.4381

                     16                     17                     18
                      A                      A                      A
 Frequencies --    374.9632               405.7431               485.7453
 Red. masses --      7.7882                 7.9787                 9.3735
 Frc consts  --      0.6452                 0.7739                 1.3031
 IR Inten    --      8.2485                 3.9118                 6.7351

                     19                     20                     21
                      A                      A                      A
 Frequencies --    504.7304               540.8249               573.1048
 Red. masses --      6.2456                 6.6659                 6.6143
 Frc consts  --      0.9374                 1.1487                 1.2800
 IR Inten    --      0.0725                16.1843                 0.1007

                     22                     23                     24
                      A                      A                      A
 Frequencies --    700.3260               748.9709               772.5876
 Red. masses --      6.5171                 6.8377                 7.7510
 Frc consts  --      1.8832                 2.2599                 2.7258
 IR Inten    --     10.9476                24.2992                85.7236

                     25                     26                     27
                      A                      A                      A
 Frequencies --    785.2878               793.6464               860.8102
 Red. masses --      4.4489                 7.2703                 6.7987
 Frc consts  --      1.6165                 2.6981                 2.9682
 IR Inten    --     14.0993                 0.3987                28.2107

                     28                     29                     30
                      A                      A                      A
 Frequencies --    901.9515               919.9051               947.4335
 Red. masses --      6.1929                 1.5454                 1.4105
 Frc consts  --      2.9683                 0.7705                 0.7460
 IR Inten    --      5.0579                13.8539                 1.9716

                     31                     32                     33
                      A                      A                      A
 Frequencies --   1011.0055              1014.4441              1044.2412
 Red. masses --      7.2199                 7.1595                 8.3679
 Frc consts  --      4.3480                 4.3410                 5.3761
 IR Inten    --     34.5164                 3.1978                46.6778

                     34                     35                     36
                      A                      A                      A
 Frequencies --   1121.1284              1179.2447              1180.4961
 Red. masses --      1.4503                 1.2777                 1.2762
 Frc consts  --      1.0741                 1.0469                 1.0479
 IR Inten    --     14.7006                 0.8364                 0.8759

                     37                     38                     39
                      A                      A                      A
 Frequencies --   1181.2182              1189.7542              1217.7529
 Red. masses --      1.6740                 2.5629                 1.5184
 Frc consts  --      1.3761                 2.1374                 1.3267
 IR Inten    --     59.2744                18.2394                18.5683

                     40                     41                     42
                      A                      A                      A
 Frequencies --   1229.8402              1277.8977              1325.6785
 Red. masses --      2.6082                 4.1394                10.7218
 Frc consts  --      2.3243                 3.9827                11.1018
 IR Inten    --     83.2263               659.6459                 1.9365

                     43                     44                     45
                      A                      A                      A
 Frequencies --   1346.5879              1440.0490              1467.6296
 Red. masses --      5.2137                 3.3625                 2.9288
 Frc consts  --      5.5701                 4.1083                 3.7168
 IR Inten    --    349.5049                42.3862                10.0353

                     46                     47                     48
                      A                      A                      A
 Frequencies --   1482.8000              1486.4045              1495.2673
 Red. masses --      1.3032                 1.4544                 1.0461
 Frc consts  --      1.6882                 1.8932                 1.3781
 IR Inten    --     22.6903                23.9744                 6.8680

                     49                     50                     51
                      A                      A                      A
 Frequencies --   1496.8308              1507.2582              1509.7792
 Red. masses --      1.0464                 1.0576                 1.0513
 Frc consts  --      1.3813                 1.4156                 1.4119
 IR Inten    --      6.8022                 5.1824                 8.5463

                     52                     53                     54
                      A                      A                      A
 Frequencies --   1611.6080              1619.4105              1801.6875
 Red. masses --      6.3908                 9.6374                11.6602
 Frc consts  --      9.7797                14.8911                22.3005
 IR Inten    --    110.7578                14.7118               173.4540

                     55                     56                     57
                      A                      A                      A
 Frequencies --   1838.8764              3066.7693              3067.9317
 Red. masses --     12.0466                 1.0302                 1.0297
 Frc consts  --     24.0005                 5.7085                 5.7101
 IR Inten    --    189.2419                35.4185                31.6615

                     58                     59                     60
                      A                      A                      A
 Frequencies --   3143.8775              3146.4821              3180.1559
 Red. masses --      1.1069                 1.1071                 1.1073
 Frc consts  --      6.4462                 6.4578                 6.5982
 IR Inten    --     18.9654                17.8882                14.0410

                     61                     62                     63
                      A                      A                      A
 Frequencies --   3184.1575              3249.9660              3259.0267
 Red. masses --      1.1068                 1.0930                 1.0927
 Frc consts  --      6.6118                 6.8017                 6.8380
 IR Inten    --     12.7770                 5.1504                 2.1553

 - Thermochemistry -
 -------------------
 Temperature   298.150 Kelvin.  Pressure   1.00000 Atm.
 Atom     1 has atomic number  6 and mass  12.00000

 Molecular mass:   229.01419 amu.
 Principal axes and moments of inertia in atomic units:
                           1         2         3
     Eigenvalues --  3174.947014831.440717983.65731
           X            1.00000   0.00249  -0.00000
           Y           -0.00249   1.00000   0.00000
           Z            0.00000  -0.00000   1.00000
 This molecule is an asymmetric top.
 Rotational symmetry number  1.
 Warning -- assumption of classical behavior for rotation
           may cause significant error
 Rotational temperatures (Kelvin)      0.02728     0.01793     0.01085
 Rotational constants (GHZ):           0.56843     0.37354     0.22605
 Zero-point vibrational energy     432184.4 (Joules/Mol)
                                  103.29456 (Kcal/Mol)
 Warning -- explicit consideration of  21 degrees of freedom as
           vibrations may cause significant error
 Vibrational temperatures:     43.15    57.37   114.20   133.12   163.97
          (Kelvin)            183.23   192.02   196.04   257.10   293.72
                              325.03   343.72   415.26   465.15   506.38
                              539.49   583.77   698.88   726.19   778.13
                              824.57  1007.61  1077.60  1111.58  1129.85
                             1141.88  1238.51  1297.71  1323.54  1363.15
                             1454.61  1459.56  1502.43  1613.05  1696.67
                             1698.47  1699.51  1711.79  1752.07  1769.47
                             1838.61  1907.36  1937.44  2071.91  2111.59
                             2133.42  2138.60  2151.36  2153.61  2168.61
                             2172.24  2318.74  2329.97  2592.23  2645.73
                             4412.40  4414.07  4523.34  4527.09  4575.54
                             4581.29  4675.98  4689.01

 Zero-point correction=                           0.164610 (Hartree/Particle)
 Thermal correction to Energy=                    0.179232
 Thermal correction to Enthalpy=                  0.180176
 Thermal correction to Gibbs Free Energy=         0.120817
 Sum of electronic and zero-point Energies=          -1163.517636
 Sum of electronic and thermal Energies=             -1163.503015
 Sum of electronic and thermal Enthalpies=           -1163.502070
 Sum of electronic and thermal Free Energies=        -1163.561429

                     E (Thermal)             CV                S
                      KCal/Mol        Cal/Mol-Kelvin    Cal/Mol-Kelvin
 Total                  112.470             50.809            124.932
 Electronic               0.000              0.000              0.000
 Translational            0.889              2.981             42.188
 Rotational               0.889              2.981             33.171
 Vibrational            110.692             44.847             49.573
 Vibration     1          0.594              1.984              5.830
 Vibration     2          0.594              1.981              5.265
 Vibration     3          0.600              1.963              3.906
 Vibration     4          0.602              1.955              3.606
 Vibration     5          0.607              1.938              3.200
 Vibration     6          0.611              1.926              2.986
 Vibration     7          0.613              1.920              2.896
 Vibration     8          0.614              1.917              2.856
 Vibration     9          0.629              1.869              2.342
 Vibration    10          0.640              1.834              2.095
 Vibration    11          0.650              1.802              1.911
 Vibration    12          0.657              1.781              1.811
 Vibration    13          0.685              1.695              1.482
 Vibration    14          0.708              1.629              1.293
 Vibration    15          0.728              1.571              1.157
 Vibration    16          0.746              1.523              1.059
 Vibration    17          0.771              1.458              0.942
 Vibration    18          0.842              1.282              0.695
 Vibration    19          0.860              1.240              0.646
 Vibration    20          0.896              1.160              0.564
 Vibration    21          0.929              1.089              0.498

                           ! Non-Optimized Parameters !
 Normal termination of Gaussian 16 at Tue Sep 17 09:48:53 2024.

 ----------------------------------------------------------------------
 #p M062X/def2tzvp geom=check guess=read scf(xqc,tight) integral(grid=u
 ltrafine) scrf(SMD, solvent=1,4-Dioxane) polar prop=efg volume
 ----------------------------------------------------------------------

 ---
 spe
 ---
 Structure from the checkpoint file:  "smiles_00058_conf_2.chk"
 Charge =  0 Multiplicity = 1

 SCF Done:  E(RM062X) =  -1163.64335017     A.U. after   12 cycles

  Exact polarizability:     191.516      -3.040     187.902      -0.003       0.003      87.458
 Approx polarizability:     190.526      -1.206     206.849      -0.001       0.009     108.503

 Normal termination of Gaussian 16 at Tue Sep 17 10:59:16 2024.
 Gaussian 16:  ES64L-G16RevC.02  7-Dec-2021

 ----------------------------------------------------------------------
 #p M062X/def2tzvp geom=check guess=read scf(xqc,tight) integral(grid=u
 ltrafine) scrf(SMD, solvent=1,4-Dioxane) nmr=giao
 ----------------------------------------------------------------------

 ---
 spe
 ---
 Structure from the checkpoint file:  "smiles_00058_conf_2.chk"
 Charge =  0 Multiplicity = 1

                         Standard orientation:
 ---------------------------------------------------------------------
 Center     Atomic      Atomic             Coordinates (Angstroms)
 Number     Number       Type             X           Y           Z
 ---------------------------------------------------------------------
      1          6           0       -4.365914   -1.832110    0.000310
      2          8           0       -3.289561   -0.880164    0.000662
      3          6           0       -2.050261   -1.423368   -0.000085
      4          8           0       -1.833708   -2.611174   -0.000797
      5          6           0       -0.990656   -0.352205   -0.000041
      6          6           0       -1.338525    1.004066   -0.000117
      7          6           0       -0.303744    1.934666   -0.000097
      8         17           0       -0.669023    3.643317   -0.000226
      9          6           0        1.016350    1.503786    0.000036
     10          6           0        1.241842    0.121976    0.000087
     11          6           0        2.676000   -0.334373    0.000233
     12          8           0        3.610736    0.443537    0.000653
     13          8           0        2.796654   -1.664725   -0.000220
     14          6           0        4.149163   -2.151113   -0.000169
     15          7           0        0.271082   -0.792664    0.000039
     16          1           0       -4.315427   -2.464411    0.889615
     17          1           0       -5.280889   -1.241279   -0.001712
     18          1           0       -4.312836   -2.466786   -0.887118
     19          1           0       -2.375325    1.310077   -0.000188
     20          1           0        1.854421    2.188291    0.000131
     21          1           0        4.680222   -1.802605    0.888703
     22          1           0        4.066622   -3.236758   -0.000566
     23          1           0        4.680533   -1.801999   -0.888623
 ---------------------------------------------------------------------

 SCF Done:  E(RM062X) =  -1163.64335017     A.U. after    1 cycles

      1  C    Isotropic =   130.2416   Anisotropy =    72.8282

      2  O    Isotropic =   132.2484   Anisotropy =   173.8216

      3  C    Isotropic =     4.2668   Anisotropy =    93.0241

      4  O    Isotropic =  -152.9414   Anisotropy =   740.5814

      5  C    Isotropic =    12.8339   Anisotropy =   170.6651

      6  C    Isotropic =    34.1687   Anisotropy =   191.3198

      7  C    Isotropic =     7.4481   Anisotropy =   173.6020

      8  Cl   Isotropic =   654.3074   Anisotropy =   491.0154

      9  C    Isotropic =    34.3147   Anisotropy =   197.5215

     10  C    Isotropic =    11.7271   Anisotropy =   173.0066

     11  C    Isotropic =    -0.4282   Anisotropy =   103.4431

     12  O    Isotropic =  -132.1975   Anisotropy =   694.0460

     13  O    Isotropic =   130.2095   Anisotropy =   190.4109

     14  C    Isotropic =   129.8308   Anisotropy =    73.4328

     15  N    Isotropic =  -148.6556   Anisotropy =   669.6804

     16  H    Isotropic =    27.8691   Anisotropy =     8.1299

     17  H    Isotropic =    27.9628   Anisotropy =     7.5060

     18  H    Isotropic =    27.8620   Anisotropy =     8.1150

     19  H    Isotropic =    22.6888   Anisotropy =    13.2113

     20  H    Isotropic =    22.4856   Anisotropy =    12.1671

     21  H    Isotropic =    27.8585   Anisotropy =     8.0778

     22  H    Isotropic =    27.8292   Anisotropy =     7.4968

     23  H    Isotropic =    27.8585   Anisotropy =     8.0779

 The electronic state is 1-A.
 Alpha  occ. eigenvalues -- -102.66730 -19.68327 -19.68030 -19.62850 -19.62828
 Alpha  occ. eigenvalues --  -14.78036 -10.68676 -10.68663 -10.64115 -10.61679
 Alpha  occ. eigenvalues --  -10.61552 -10.59331 -10.58979 -10.58526 -10.58315
 Alpha  occ. eigenvalues --   -9.82971  -7.55174  -7.54656  -7.54629  -1.24353
 Alpha  occ. eigenvalues --   -1.24293  -1.15143  -1.14962  -1.08876  -1.00042
 Alpha  occ. eigenvalues --   -0.91600  -0.89798  -0.84249  -0.82554  -0.76108
 Alpha  occ. eigenvalues --   -0.74633  -0.67011  -0.65775  -0.63428  -0.61021
 Alpha  occ. eigenvalues --   -0.58725  -0.58346  -0.57886  -0.57411  -0.56714
 Alpha  occ. eigenvalues --   -0.55496  -0.51826  -0.51516  -0.50073  -0.49357
 Alpha  occ. eigenvalues --   -0.47869  -0.47388  -0.46980  -0.44263  -0.43745
 Alpha  occ. eigenvalues --   -0.43661  -0.40096  -0.38724  -0.38709  -0.38430
 Alpha  occ. eigenvalues --   -0.36828  -0.35114  -0.34756  -0.34524
 Alpha virt. eigenvalues --   -0.04751  -0.04125   0.04853   0.05162   0.08026
 Alpha virt. eigenvalues --    0.08578   0.10336   0.10588   0.10995   0.12069
 Alpha virt. eigenvalues --    0.12726   0.13334   0.14701   0.15349   0.15665

 Mulliken charges:
               1
     1  C   -0.271373
     2  O   -0.275107
     3  C    0.325080
     4  O   -0.315827
     5  C    0.086015
     6  C   -0.161287
     7  C    0.093607
     8  Cl  -0.054198
     9  C   -0.176272
    10  C    0.103706
    11  C    0.344897
    12  O   -0.363911
    13  O   -0.233751
    14  C   -0.277086
    15  N   -0.196591
    16  H    0.163524
    17  H    0.158372
    18  H    0.163518
    19  H    0.196235
    20  H    0.204659
    21  H    0.161203
    22  H    0.163387
    23  H    0.161199
 Sum of Mulliken charges =  -0.00000

 Dipole moment (field-independent basis, Debye):
    X=             -2.1789    Y=              0.6442    Z=             -0.0000  Tot=              2.2721
 Quadrupole moment (field-independent basis, Debye-Ang):
   XX=            -73.9601   YY=            -97.3521   ZZ=            -91.3282
   XY=             -6.2187   XZ=             -0.0042   YZ=             -0.0052

 Normal termination of Gaussian 16 at Tue Sep 17 11:25:24 2024.
