 Gaussian 16, Revision C.02,

 ----------------------------------------------------------------------
 #p B3LYP/gen pseudo=read EmpiricalDispersion=GD3BJ opt freq scf(xqc,ti
 ght) integral(grid=ultrafine)
 ----------------------------------------------------------------------

 ----------------------------------
 opt-freq conformers_unique/conf_ab
 ----------------------------------
 Symbolic Z-matrix:
 Charge =  0 Multiplicity = 1

 SCF Done:  E(RB3LYP) =  -400.340227722     A.U. after   14 cycles
 SCF Done:  E(RB3LYP) =  -400.341918759     A.U. after   12 cycles
 SCF Done:  E(RB3LYP) =  -400.342014102     A.U. after   11 cycles
 SCF Done:  E(RB3LYP) =  -400.342109467     A.U. after   11 cycles
 SCF Done:  E(RB3LYP) =  -400.286779246     A.U. after   14 cycles
 SCF Done:  E(RB3LYP) =  -400.284824021     A.U. after   13 cycles
 SCF Done:  E(RB3LYP) =  -400.273754912     A.U. after   14 cycles
 SCF Done:  E(RB3LYP) =  -400.296774103     A.U. after   11 cycles
 SCF Done:  E(RB3LYP) =  -400.311984173     A.U. after   11 cycles
 SCF Done:  E(RB3LYP) =  -400.322406302     A.U. after   12 cycles
 SCF Done:  E(RB3LYP) =  -400.342842496     A.U. after   11 cycles
 SCF Done:  E(RB3LYP) =  -400.342943445     A.U. after   11 cycles
 SCF Done:  E(RB3LYP) =  -400.342945969     A.U. after   10 cycles
 SCF Done:  E(RB3LYP) =  -400.342940597     A.U. after   10 cycles
 SCF Done:  E(RB3LYP) =  -400.342923122     A.U. after   10 cycles
 SCF Done:  E(RB3LYP) =  -400.342946519     A.U. after   10 cycles
 SCF Done:  E(RB3LYP) =  -400.342947681     A.U. after    8 cycles
 Optimization completed.
    -- Stationary point found.
 Normal termination of Gaussian 16 at Tue Sep 17 10:02:31 2024.

 ------------------------------------------------------------------
 #P Geom=AllCheck Guess=TCheck SCRF=Check GenChk RB3LYP/ChkBas Freq
 ------------------------------------------------------------------

 Structure from the checkpoint file:  "smiles_00095_conf_1.chk"
 ----------------------------------
 opt-freq conformers_unique/conf_ab
 ----------------------------------
 Charge =  0 Multiplicity = 1

 SCF Done:  E(RB3LYP) =  -400.342947681     A.U. after    1 cycles

                      1                      2                      3
                      A                      A                      A
 Frequencies --     50.4601                63.6888               141.6909
 Red. masses --      3.3437                 4.2989                 4.8270
 Frc consts  --      0.0050                 0.0103                 0.0571
 IR Inten    --      0.0072                 0.0150                 0.0143

                      4                      5                      6
                      A                      A                      A
 Frequencies --    187.6184               193.2749               242.3008
 Red. masses --      2.8852                 7.1187                 1.1429
 Frc consts  --      0.0598                 0.1567                 0.0395
 IR Inten    --      0.0107                 0.6540                 0.1261

                      7                      8                      9
                      A                      A                      A
 Frequencies --    266.6131               284.1643               334.9703
 Red. masses --      1.6137                 1.5526                 1.0452
 Frc consts  --      0.0676                 0.0739                 0.0691
 IR Inten    --      0.0077                 0.2986                 0.0000

                     10                     11                     12
                      A                      A                      A
 Frequencies --    337.9340               349.8390               388.4390
 Red. masses --      2.6462                 2.7628                 3.2281
 Frc consts  --      0.1780                 0.1992                 0.2870
 IR Inten    --      0.1769                 0.1055                 2.7702

                     13                     14                     15
                      A                      A                      A
 Frequencies --    406.9360               417.9949               467.5289
 Red. masses --      2.8600                 2.9502                 2.9088
 Frc consts  --      0.2790                 0.3037                 0.3746
 IR Inten    --      0.9535                 0.0130                 0.2205

                     16                     17                     18
                      A                      A                      A
 Frequencies --    551.0295               561.7192               647.0278
 Red. masses --      2.8616                 3.1614                 7.1113
 Frc consts  --      0.5119                 0.5877                 1.7541
 IR Inten    --     16.5042                 4.0716                 0.3752

                     19                     20                     21
                      A                      A                      A
 Frequencies --    729.4739               733.1059               838.6294
 Red. masses --      5.4247                 3.3574                 1.5362
 Frc consts  --      1.7008                 1.0631                 0.6365
 IR Inten    --     21.5612                 1.8267                25.8513

                     22                     23                     24
                      A                      A                      A
 Frequencies --    842.5358               851.9392               937.4837
 Red. masses --      1.2670                 2.5486                 1.7547
 Frc consts  --      0.5299                 1.0899                 0.9086
 IR Inten    --      1.8552                 0.4273                 0.9833

                     25                     26                     27
                      A                      A                      A
 Frequencies --    949.3766               965.3962               968.6466
 Red. masses --      1.6785                 1.2410                 1.2793
 Frc consts  --      0.8914                 0.6814                 0.7072
 IR Inten    --      0.7694                 0.0008                 0.0598

                     28                     29                     30
                      A                      A                      A
 Frequencies --    974.9805              1016.4423              1049.7831
 Red. masses --      1.3100                 5.6682                 1.4158
 Frc consts  --      0.7337                 3.4503                 0.9193
 IR Inten    --      0.0772                72.5949                 3.0649

                     31                     32                     33
                      A                      A                      A
 Frequencies --   1056.8326              1090.3380              1140.9163
 Red. masses --      1.3968                 2.8558                 2.1465
 Frc consts  --      0.9192                 2.0003                 1.6462
 IR Inten    --      0.0002                 8.0736                29.9811

                     34                     35                     36
                      A                      A                      A
 Frequencies --   1148.2444              1225.5581              1237.4883
 Red. masses --      1.4435                 1.1355                 2.7438
 Frc consts  --      1.1214                 1.0048                 2.4756
 IR Inten    --      3.8615                 0.0235                 3.3909

                     37                     38                     39
                      A                      A                      A
 Frequencies --   1240.5482              1301.7844              1337.7048
 Red. masses --      2.5130                 3.0553                 9.9195
 Frc consts  --      2.2786                 3.0505                10.4583
 IR Inten    --      0.6017                15.4604                 0.4117

                     40                     41                     42
                      A                      A                      A
 Frequencies --   1338.4394              1411.0101              1413.2214
 Red. masses --      1.2710                 1.3123                 1.2157
 Frc consts  --      1.3415                 1.5393                 1.4305
 IR Inten    --      0.0420                 2.7466                 4.0234

                     43                     44                     45
                      A                      A                      A
 Frequencies --   1437.4231              1444.9516              1496.0705
 Red. masses --      2.4101                 1.2197                 1.0489
 Frc consts  --      2.9340                 1.5004                 1.3832
 IR Inten    --     14.1669                 3.5736                 0.0045

                     46                     47                     48
                      A                      A                      A
 Frequencies --   1499.7278              1503.1555              1516.8864
 Red. masses --      1.0446                 1.0630                 1.1059
 Frc consts  --      1.3843                 1.4151                 1.4993
 IR Inten    --      0.1470                 2.8068                11.6505

                     49                     50                     51
                      A                      A                      A
 Frequencies --   1522.0418              1531.3833              1536.7091
 Red. masses --      1.0506                 1.5086                 1.2806
 Frc consts  --      1.4339                 2.0845                 1.7817
 IR Inten    --      4.8544                14.3440                42.5492

                     52                     53                     54
                      A                      A                      A
 Frequencies --   1619.5788              1644.9127              3042.9295
 Red. masses --      6.7979                 5.5992                 1.0349
 Frc consts  --     10.5058                 8.9261                 5.6457
 IR Inten    --      0.8311                 6.8384                23.4293

                     55                     56                     57
                      A                      A                      A
 Frequencies --   3043.3396              3050.3684              3113.9602
 Red. masses --      1.0350                 1.0363                 1.1025
 Frc consts  --      5.6481                 5.6812                 6.2987
 IR Inten    --     26.0475                22.7980                 2.7625

                     58                     59                     60
                      A                      A                      A
 Frequencies --   3114.5594              3118.4733              3121.9285
 Red. masses --      1.1026                 1.1030                 1.1016
 Frc consts  --      6.3018                 6.3197                 6.3260
 IR Inten    --      3.4789                23.9868                91.4680

                     61                     62                     63
                      A                      A                      A
 Frequencies --   3125.4631              3127.8262              3193.2918
 Red. masses --      1.1025                 1.1017                 1.0877
 Frc consts  --      6.3452                 6.3505                 6.5349
 IR Inten    --     18.1914                41.3607                10.3969

                     64                     65                     66
                      A                      A                      A
 Frequencies --   3212.0241              3219.7890              3227.9178
 Red. masses --      1.0881                 1.0940                 1.0935
 Frc consts  --      6.6142                 6.6822                 6.7129
 IR Inten    --      0.6644                 7.4881                 7.6974

 - Thermochemistry -
 -------------------
 Temperature   298.150 Kelvin.  Pressure   1.00000 Atm.
 Atom     1 has atomic number  6 and mass  12.00000

 Molecular mass:   260.00213 amu.
 Principal axes and moments of inertia in atomic units:
                           1         2         3
     Eigenvalues --   708.908077626.621527936.35554
           X            1.00000   0.00035  -0.00000
           Y           -0.00035   1.00000  -0.00000
           Z            0.00000   0.00000   1.00000
 This molecule is an asymmetric top.
 Rotational symmetry number  1.
 Warning -- assumption of classical behavior for rotation
           may cause significant error
 Rotational temperatures (Kelvin)      0.12218     0.01136     0.01091
 Rotational constants (GHZ):           2.54580     0.23664     0.22740
 Zero-point vibrational energy     533282.2 (Joules/Mol)
                                  127.45750 (Kcal/Mol)
 Warning -- explicit consideration of  17 degrees of freedom as
           vibrations may cause significant error
 Vibrational temperatures:     72.60    91.63   203.86   269.94   278.08
          (Kelvin)            348.62   383.60   408.85   481.95   486.21
                              503.34   558.88   585.49   601.40   672.67
                              792.81   808.19   930.93  1049.55  1054.78
                             1206.60  1212.22  1225.75  1348.83  1365.94
                             1388.99  1393.67  1402.78  1462.43  1510.40
                             1520.55  1568.75  1641.52  1652.07  1763.30
                             1780.47  1784.87  1872.98  1924.66  1925.72
                             2030.13  2033.31  2068.13  2078.96  2152.51
                             2157.77  2162.71  2182.46  2189.88  2203.32
                             2210.98  2330.21  2366.66  4378.10  4378.69
                             4388.80  4480.29  4481.16  4486.79  4491.76
                             4496.84  4500.24  4594.43  4621.39  4632.56
                             4644.25

 Zero-point correction=                           0.203116 (Hartree/Particle)
 Thermal correction to Energy=                    0.214505
 Thermal correction to Enthalpy=                  0.215449
 Thermal correction to Gibbs Free Energy=         0.164617
 Sum of electronic and zero-point Energies=           -400.139831
 Sum of electronic and thermal Energies=              -400.128443
 Sum of electronic and thermal Enthalpies=            -400.127499
 Sum of electronic and thermal Free Energies=         -400.178330

                     E (Thermal)             CV                S
                      KCal/Mol        Cal/Mol-Kelvin    Cal/Mol-Kelvin
 Total                  134.604             43.534            106.984
 Electronic               0.000              0.000              0.000
 Translational            0.889              2.981             42.566
 Rotational               0.889              2.981             32.129
 Vibrational            132.826             37.572             32.289
 Vibration     1          0.595              1.977              4.799
 Vibration     2          0.597              1.972              4.340
 Vibration     3          0.615              1.912              2.781
 Vibration     4          0.632              1.857              2.251
 Vibration     5          0.635              1.849              2.196
 Vibration     6          0.658              1.775              1.786
 Vibration     7          0.672              1.734              1.618
 Vibration     8          0.683              1.703              1.508
 Vibration     9          0.716              1.606              1.236
 Vibration    10          0.718              1.600              1.222
 Vibration    11          0.727              1.576              1.167
 Vibration    12          0.757              1.495              1.006
 Vibration    13          0.772              1.455              0.938
 Vibration    14          0.781              1.431              0.899
 Vibration    15          0.825              1.322              0.745
 Vibration    16          0.906              1.137              0.542
 Vibration    17          0.917              1.114              0.520

 Optimization completed.
    -- Stationary point found.
 Normal termination of Gaussian 16 at Tue Sep 17 10:04:06 2024.

 ----------------------------------------------------------------------
 #p M062X/def2tzvp geom=check guess=read scf(xqc,tight) integral(grid=u
 ltrafine) scrf(SMD, solvent=1,4-Dioxane) polar prop=efg volume
 ----------------------------------------------------------------------

 ---
 spe
 ---
 Structure from the checkpoint file:  "smiles_00095_conf_1.chk"
 Charge =  0 Multiplicity = 1

 SCF Done:  E(RM062X) =  -686.492914111     A.U. after   21 cycles

  Exact polarizability:     245.925       0.409     158.484       0.002       0.000     116.624
 Approx polarizability:     232.413       0.587     189.686       0.003       0.000     138.592

 1\1\GINC-HPC-52-40\SP\RM062X\def2TZVP\C10H13I1\MANTIND\17-Sep-2024\0\\
 #p M062X/def2tzvp geom=check guess=read scf(xqc,tight) integral(grid=u
 ltrafine) scrf(SMD, solvent=1,4-Dioxane) polar prop=efg volume\\spe\\0
 ,1\C,0,-4.4182457905,1.1951313121,-0.749791212\C,0,-3.9074877233,-0.05
 44099928,0.0003087917\C,0,-4.4957580209,-1.3004644843,-0.6814385958\C,
 0,-4.4089864866,-0.0186200263,1.4605188273\C,0,-2.3733245212,-0.057462
 9765,-0.0079798143\C,0,-1.6709242696,1.00914409,0.5748924823\C,0,-0.27
 898518,1.0530594721,0.5927462023\C,0,0.4389172583,0.0075621535,0.01504

 Normal termination of Gaussian 16 at Tue Sep 17 11:02:13 2024.
 Gaussian 16:  ES64L-G16RevC.02  7-Dec-2021

 ----------------------------------------------------------------------
 #p M062X/def2tzvp geom=check guess=read scf(xqc,tight) integral(grid=u
 ltrafine) scrf(SMD, solvent=1,4-Dioxane) nmr=giao
 ----------------------------------------------------------------------

 ---
 spe
 ---
 Structure from the checkpoint file:  "smiles_00095_conf_1.chk"
 Charge =  0 Multiplicity = 1

                         Standard orientation:
 ---------------------------------------------------------------------
 Center     Atomic      Atomic             Coordinates (Angstroms)
 Number     Number       Type             X           Y           Z
 ---------------------------------------------------------------------
      1          6           0       -4.036961   -0.741005    1.261153
      2          6           0       -3.543531    0.001256    0.000022
      3          6           0       -4.155550    1.411548   -0.000246
      4          6           0       -4.037587   -0.741699   -1.260503
      5          6           0       -2.009684    0.033658   -0.000205
      6          6           0       -1.286988   -1.169865   -0.000147
      7          6           0        0.105556   -1.193594   -0.000109
      8          6           0        0.803326    0.012768   -0.000103
      9         53           0        2.946141   -0.003720    0.000025
     10          6           0        0.123170    1.224770   -0.000125
     11          6           0       -1.274514    1.224114   -0.000143
     12          1           0       -3.668569   -1.770087    1.295961
     13          1           0       -5.131594   -0.776741    1.276942
     14          1           0       -3.697753   -0.232836    2.169194
     15          1           0       -3.862270    1.980821   -0.887973
     16          1           0       -3.861985    1.981282    0.887105
     17          1           0       -5.247278    1.337973   -0.000019
     18          1           0       -3.698674   -0.234113   -2.168979
     19          1           0       -3.669377   -1.770856   -1.294878
     20          1           0       -5.132216   -0.777301   -1.275822
     21          1           0       -1.815716   -2.117935   -0.000101
     22          1           0        0.634825   -2.139473   -0.000042
     23          1           0        0.664426    2.163863   -0.000158
     24          1           0       -1.782711    2.180870   -0.000152
 ---------------------------------------------------------------------

 SCF Done:  E(RM062X) =  -686.492914111     A.U. after    1 cycles

      1  C    Isotropic =   151.3903   Anisotropy =    46.3675

      2  C    Isotropic =   147.2615   Anisotropy =    14.4568

      3  C    Isotropic =   155.6594   Anisotropy =    36.0154

      4  C    Isotropic =   151.4034   Anisotropy =    46.3583

      5  C    Isotropic =     7.3255   Anisotropy =   243.7528

      6  C    Isotropic =    32.9989   Anisotropy =   207.0875

      7  C    Isotropic =    27.1182   Anisotropy =   181.4892

      8  C    Isotropic =    31.8030   Anisotropy =   126.5078

      9  I    Isotropic =   435.8000   Anisotropy =    72.1343

     10  C    Isotropic =    26.9610   Anisotropy =   181.6513

     11  C    Isotropic =    37.0629   Anisotropy =   199.9907

     12  H    Isotropic =    30.3444   Anisotropy =     7.9073

     13  H    Isotropic =    30.7598   Anisotropy =     9.3600

     14  H    Isotropic =    30.8432   Anisotropy =     8.2170

     15  H    Isotropic =    30.3798   Anisotropy =     8.5927

     16  H    Isotropic =    30.3792   Anisotropy =     8.5922

     17  H    Isotropic =    30.8028   Anisotropy =     8.4333

     18  H    Isotropic =    30.8428   Anisotropy =     8.2188

     19  H    Isotropic =    30.3438   Anisotropy =     7.9091

     20  H    Isotropic =    30.7600   Anisotropy =     9.3585

     21  H    Isotropic =    23.5656   Anisotropy =    11.8045

     22  H    Isotropic =    23.6239   Anisotropy =    12.3144

     23  H    Isotropic =    23.6642   Anisotropy =    12.3495

     24  H    Isotropic =    23.7728   Anisotropy =    12.1402

 The electronic state is 1-A.
 Alpha  occ. eigenvalues --  -10.59303 -10.55660 -10.55479 -10.55372 -10.55327
 Alpha  occ. eigenvalues --  -10.54785 -10.54722 -10.52305 -10.52304 -10.52268
 Alpha  occ. eigenvalues --   -7.10078  -5.09408  -5.08385  -5.08385  -2.06239
 Alpha  occ. eigenvalues --   -2.05813  -2.05808  -2.04962  -2.04961  -0.97570
 Alpha  occ. eigenvalues --   -0.92136  -0.85134  -0.84607  -0.77728  -0.77547
 Alpha  occ. eigenvalues --   -0.77166  -0.69435  -0.68525  -0.63152  -0.56977
 Alpha  occ. eigenvalues --   -0.53754  -0.52486  -0.50831  -0.50662  -0.49656
 Alpha  occ. eigenvalues --   -0.48601  -0.46530  -0.44098  -0.44056  -0.42662
 Alpha  occ. eigenvalues --   -0.42042  -0.40862  -0.39215  -0.37776  -0.37220
 Alpha  occ. eigenvalues --   -0.34323  -0.31908  -0.31606  -0.28477
 Alpha virt. eigenvalues --   -0.00087   0.01003   0.01437   0.06680   0.09768
 Alpha virt. eigenvalues --    0.10146   0.11251   0.12149   0.12199   0.12844
 Alpha virt. eigenvalues --    0.13564   0.14865   0.15149   0.16193   0.16464

 Mulliken charges:
               1
     1  C   -0.435399
     2  C   -0.056368
     3  C   -0.535466
     4  C   -0.435422
     5  C    0.119196
     6  C   -0.222169
     7  C   -0.213916
     8  C    0.069907
     9  I   -0.115465
    10  C   -0.206826
    11  C   -0.159856
    12  H    0.152195
    13  H    0.156907
    14  H    0.163509
    15  H    0.172422
    16  H    0.172384
    17  H    0.164923
    18  H    0.163511
    19  H    0.152192
    20  H    0.156918
    21  H    0.184633
    22  H    0.184476
    23  H    0.182485
    24  H    0.185230
 Sum of Mulliken charges =  -0.00000

 Dipole moment (field-independent basis, Debye):
    X=             -2.8251    Y=             -0.0156    Z=              0.0002  Tot=              2.8251
 Quadrupole moment (field-independent basis, Debye-Ang):
   XX=            -84.2549   YY=            -83.5125   ZZ=            -92.8779
   XY=              0.0247   XZ=             -0.0001   YZ=             -0.0003

 1\1\GINC-HPC-52-40\SP\RM062X\def2TZVP\C10H13I1\MANTIND\17-Sep-2024\0\\
 #p M062X/def2tzvp geom=check guess=read scf(xqc,tight) integral(grid=u
 ltrafine) scrf(SMD, solvent=1,4-Dioxane) nmr=giao\\spe\\0,1\C,0,-4.418
 2457905,1.1951313121,-0.749791212\C,0,-3.9074877233,-0.0544099928,0.00
 03087917\C,0,-4.4957580209,-1.3004644843,-0.6814385958\C,0,-4.40898648
 66,-0.0186200263,1.4605188273\C,0,-2.3733245212,-0.0574629765,-0.00797
 98143\C,0,-1.6709242696,1.00914409,0.5748924823\C,0,-0.27898518,1.0530
 594721,0.5927462023\C,0,0.4389172583,0.0075621535,0.0150401794\I,0,2.5

 Normal termination of Gaussian 16 at Tue Sep 17 11:18:51 2024.
