 Gaussian 16, Revision C.02,

 ----------------------------------------------------------------------
 #p B3LYP/6-31G(d,p) EmpiricalDispersion=GD3BJ opt freq scf(xqc,tight)
 integral(grid=ultrafine)
 ----------------------------------------------------------------------

 ----------------------------------
 opt-freq conformers_unique/conf_ab
 ----------------------------------
 Symbolic Z-matrix:
 Charge =  0 Multiplicity = 1

 SCF Done:  E(RB3LYP) =  -951.824649648     A.U. after   15 cycles
 SCF Done:  E(RB3LYP) =  -951.826957460     A.U. after   13 cycles
 SCF Done:  E(RB3LYP) =  -951.827258875     A.U. after   12 cycles
 SCF Done:  E(RB3LYP) =  -951.827034867     A.U. after   13 cycles
 SCF Done:  E(RB3LYP) =  -951.827397449     A.U. after   12 cycles
 SCF Done:  E(RB3LYP) =  -951.827431317     A.U. after   12 cycles
 SCF Done:  E(RB3LYP) =  -951.827441019     A.U. after   12 cycles
 SCF Done:  E(RB3LYP) =  -951.827447051     A.U. after    9 cycles
 SCF Done:  E(RB3LYP) =  -951.827447916     A.U. after    8 cycles
 Optimization completed.
    -- Stationary point found.
 Normal termination of Gaussian 16 at Tue Sep 17 09:52:10 2024.

 ----------------------------------------------------------------------
 #P Geom=AllCheck Guess=TCheck SCRF=Check GenChk RB3LYP/6-31G(d,p) Freq
 ----------------------------------------------------------------------

 Structure from the checkpoint file:  "smiles_00119_conf_1.chk"
 ----------------------------------
 opt-freq conformers_unique/conf_ab
 ----------------------------------
 Charge =  0 Multiplicity = 1

 SCF Done:  E(RB3LYP) =  -951.827447916     A.U. after    1 cycles

                      1                      2                      3
                      A                      A                      A
 Frequencies --     29.7065               101.9678               127.3802
 Red. masses --      6.5537                 3.0925                 1.2116
 Frc consts  --      0.0034                 0.0189                 0.0116
 IR Inten    --      0.5270                 0.5771                 0.0735

                      4                      5                      6
                      A                      A                      A
 Frequencies --    133.0221               161.5536               202.3082
 Red. masses --      5.8622                 6.4790                 5.8598
 Frc consts  --      0.0611                 0.0996                 0.1413
 IR Inten    --      0.3875                 3.4066                 5.0092

                      7                      8                      9
                      A                      A                      A
 Frequencies --    258.6924               338.0582               381.8521
 Red. masses --      7.2741                 4.3997                13.1767
 Frc consts  --      0.2868                 0.2963                 1.1320
 IR Inten    --      2.7257                14.3959                 0.2415

                     10                     11                     12
                      A                      A                      A
 Frequencies --    434.6482               439.1812               517.5179
 Red. masses --     12.3899                 3.9362                 7.9893
 Frc consts  --      1.3791                 0.4473                 1.2607
 IR Inten    --      7.6491                 0.0252                 5.0039

                     13                     14                     15
                      A                      A                      A
 Frequencies --    554.9342               686.4767               760.5316
 Red. masses --      7.5186                 8.1487                 8.7769
 Frc consts  --      1.3642                 2.2625                 2.9911
 IR Inten    --      2.4064                18.0648                24.8568

                     16                     17                     18
                      A                      A                      A
 Frequencies --    781.5614               802.0685               871.2695
 Red. masses --      7.2830                 3.8261                 6.0499
 Frc consts  --      2.6211                 1.4502                 2.7058
 IR Inten    --     54.3065                 0.2496                42.3962

                     19                     20                     21
                      A                      A                      A
 Frequencies --    881.1519              1006.1672              1006.5404
 Red. masses --      1.5545                 1.4007                 9.7783
 Frc consts  --      0.7111                 0.8355                 5.8368
 IR Inten    --     11.0274                 0.0121                 0.8061

                     22                     23                     24
                      A                      A                      A
 Frequencies --   1024.6775              1116.5476              1180.1024
 Red. masses --      8.5735                 1.4893                 1.2764
 Frc consts  --      5.3037                 1.0939                 1.0473
 IR Inten    --     55.5186                 2.6805                 0.8997

                     25                     26                     27
                      A                      A                      A
 Frequencies --   1187.1399              1226.3489              1229.2269
 Red. masses --      2.6199                 2.4951                 2.5033
 Frc consts  --      2.1754                 2.2108                 2.2286
 IR Inten    --     52.5388                23.4872               180.7124

                     28                     29                     30
                      A                      A                      A
 Frequencies --   1265.3252              1308.1885              1389.5746
 Red. masses --      8.8923                 4.9589                 2.8870
 Frc consts  --      8.3882                 5.0001                 3.2844
 IR Inten    --     91.7691               290.1518               247.0521

                     31                     32                     33
                      A                      A                      A
 Frequencies --   1467.5550              1483.2085              1495.3050
 Red. masses --      2.2526                 1.3093                 1.0458
 Frc consts  --      2.8585                 1.6970                 1.3777
 IR Inten    --     12.3255                12.3267                 7.2904

                     34                     35                     36
                      A                      A                      A
 Frequencies --   1508.7914              1602.4845              1614.5878
 Red. masses --      1.0509                 7.3004                 6.3991
 Frc consts  --      1.4095                11.0454                 9.8285
 IR Inten    --      9.0183               123.6812               110.9845

                     37                     38                     39
                      A                      A                      A
 Frequencies --   1842.0092              3069.8300              3149.4663
 Red. masses --     12.0508                 1.0296                 1.1072
 Frc consts  --     24.0908                 5.7169                 6.4709
 IR Inten    --    168.9267                28.9993                15.9788

                     40                     41                     42
                      A                      A                      A
 Frequencies --   3183.4068              3185.9289              3259.2051
 Red. masses --      1.1075                 1.0920                 1.0942
 Frc consts  --      6.6124                 6.5306                 6.8481
 IR Inten    --     12.3223                16.4679                 0.3015

 - Thermochemistry -
 -------------------
 Temperature   298.150 Kelvin.  Pressure   1.00000 Atm.
 Atom     1 has atomic number  6 and mass  12.00000

 Molecular mass:   172.00396 amu.
 Principal axes and moments of inertia in atomic units:
                           1         2         3
     Eigenvalues --   787.939063449.444074226.01336
           X            0.99995  -0.00994  -0.00000
           Y            0.00994   0.99995   0.00001
           Z            0.00000  -0.00001   1.00000
 This molecule is an asymmetric top.
 Rotational symmetry number  1.
 Warning -- assumption of classical behavior for rotation
           may cause significant error
 Rotational temperatures (Kelvin)      0.10992     0.02511     0.02050
 Rotational constants (GHZ):           2.29046     0.52320     0.42706
 Zero-point vibrational energy     288691.8 (Joules/Mol)
                                   68.99900 (Kcal/Mol)
 Warning -- explicit consideration of  13 degrees of freedom as
           vibrations may cause significant error
 Vibrational temperatures:     42.74   146.71   183.27   191.39   232.44
          (Kelvin)            291.08   372.20   486.39   549.40   625.36
                              631.88   744.59   798.43   987.69  1094.24
                             1124.49  1154.00  1253.56  1267.78  1447.65
                             1448.19  1474.28  1606.46  1697.90  1708.03
                             1764.44  1768.58  1820.52  1882.19  1999.29
                             2111.48  2134.01  2151.41  2170.81  2305.62
                             2323.03  2650.24  4416.80  4531.38  4580.21
                             4583.84  4689.27

 Zero-point correction=                           0.109957 (Hartree/Particle)
 Thermal correction to Energy=                    0.119803
 Thermal correction to Enthalpy=                  0.120748
 Thermal correction to Gibbs Free Energy=         0.072936
 Sum of electronic and zero-point Energies=           -951.717491
 Sum of electronic and thermal Energies=              -951.707645
 Sum of electronic and thermal Enthalpies=            -951.706700
 Sum of electronic and thermal Free Energies=         -951.754512

                     E (Thermal)             CV                S
                      KCal/Mol        Cal/Mol-Kelvin    Cal/Mol-Kelvin
 Total                   75.178             34.430            100.627
 Electronic               0.000              0.000              0.000
 Translational            0.889              2.981             41.335
 Rotational               0.889              2.981             30.819
 Vibrational             73.400             28.469             28.473
 Vibration     1          0.593              1.984              5.849
 Vibration     2          0.604              1.948              3.416
 Vibration     3          0.611              1.926              2.985
 Vibration     4          0.613              1.920              2.902
 Vibration     5          0.622              1.890              2.532
 Vibration     6          0.639              1.837              2.112
 Vibration     7          0.668              1.748              1.671
 Vibration     8          0.718              1.599              1.221
 Vibration     9          0.751              1.509              1.032
 Vibration    10          0.795              1.395              0.844
 Vibration    11          0.799              1.385              0.829
 Vibration    12          0.873              1.211              0.616
 Vibration    13          0.910              1.129              0.534

                           ! Non-Optimized Parameters !
 Normal termination of Gaussian 16 at Tue Sep 17 09:53:04 2024.

 ----------------------------------------------------------------------
 #p M062X/def2tzvp geom=check guess=read scf(xqc,tight) integral(grid=u
 ltrafine) scrf(SMD, solvent=1,4-Dioxane) polar prop=efg volume
 ----------------------------------------------------------------------

 ---
 spe
 ---
 Structure from the checkpoint file:  "smiles_00119_conf_1.chk"
 Charge =  0 Multiplicity = 1

 SCF Done:  E(RM062X) =  -951.802879754     A.U. after   12 cycles

  Exact polarizability:     151.504       7.256     122.488      -0.008       0.003      64.478
 Approx polarizability:     148.654       7.949     146.986      -0.005      -0.003      79.574

 Normal termination of Gaussian 16 at Tue Sep 17 10:16:57 2024.
 Gaussian 16:  ES64L-G16RevC.02  7-Dec-2021

 ----------------------------------------------------------------------
 #p M062X/def2tzvp geom=check guess=read scf(xqc,tight) integral(grid=u
 ltrafine) scrf(SMD, solvent=1,4-Dioxane) nmr=giao
 ----------------------------------------------------------------------

 ---
 spe
 ---
 Structure from the checkpoint file:  "smiles_00119_conf_1.chk"
 Charge =  0 Multiplicity = 1

                         Standard orientation:
 ---------------------------------------------------------------------
 Center     Atomic      Atomic             Coordinates (Angstroms)
 Number     Number       Type             X           Y           Z
 ---------------------------------------------------------------------
      1          6           0        4.095346   -0.184465   -0.000077
      2          8           0        2.775852    0.388533   -0.000728
      3          6           0        1.767708   -0.509100    0.000051
      4          8           0        1.918464   -1.706224    0.000639
      5          6           0        0.430435    0.190222    0.000180
      6          6           0        0.315090    1.580319    0.000158
      7          6           0       -0.981778    2.090288    0.000257
      8          7           0       -2.064485    1.305803    0.000128
      9          6           0       -1.816203   -0.002340   -0.000081
     10         17           0       -3.221308   -1.042972   -0.000184
     11          7           0       -0.641238   -0.613546   -0.000060
     12          1           0        4.242401   -0.798934   -0.890982
     13          1           0        4.238518   -0.806145    0.886387
     14          1           0        4.782140    0.660552    0.004660
     15          1           0        1.186978    2.219453    0.000079
     16          1           0       -1.165855    3.161784    0.000288
 ---------------------------------------------------------------------

 SCF Done:  E(RM062X) =  -951.802879754     A.U. after    1 cycles

      1  C    Isotropic =   129.8450   Anisotropy =    73.4518

      2  O    Isotropic =   128.6236   Anisotropy =   175.8990

      3  C    Isotropic =     4.3235   Anisotropy =    94.5648

      4  O    Isotropic =  -162.6331   Anisotropy =   757.6649

      5  C    Isotropic =     2.8201   Anisotropy =   194.3522

      6  C    Isotropic =    45.0725   Anisotropy =   208.2618

      7  C    Isotropic =    -3.3915   Anisotropy =   226.0732

      8  N    Isotropic =  -124.0508   Anisotropy =   552.8660

      9  C    Isotropic =    -7.0155   Anisotropy =   105.0102

     10  Cl   Isotropic =   544.8252   Anisotropy =   695.0505

     11  N    Isotropic =  -112.2417   Anisotropy =   528.7052

     12  H    Isotropic =    27.8658   Anisotropy =     7.9542

     13  H    Isotropic =    27.8532   Anisotropy =     7.9250

     14  H    Isotropic =    27.9583   Anisotropy =     7.4176

     15  H    Isotropic =    23.0722   Anisotropy =     9.5260

     16  H    Isotropic =    22.1027   Anisotropy =     7.6214

 The electronic state is 1-A.
 Alpha  occ. eigenvalues -- -102.65422 -19.68997 -19.63638 -14.78738 -14.78706
 Alpha  occ. eigenvalues --  -10.69399 -10.68511 -10.63131 -10.61874 -10.59760
 Alpha  occ. eigenvalues --  -10.58081  -9.81712  -7.53906  -7.53404  -7.53356
 Alpha  occ. eigenvalues --   -1.25022  -1.15934  -1.13777  -1.02991  -0.97337
 Alpha  occ. eigenvalues --   -0.90011  -0.84526  -0.78010  -0.75266  -0.67787
 Alpha  occ. eigenvalues --   -0.63833  -0.62049  -0.58393  -0.57503  -0.55850
 Alpha  occ. eigenvalues --   -0.54772  -0.54264  -0.50692  -0.49433  -0.48341
 Alpha  occ. eigenvalues --   -0.44838  -0.42104  -0.40785  -0.40205  -0.39496
 Alpha  occ. eigenvalues --   -0.39233  -0.37897  -0.35035  -0.34330
 Alpha virt. eigenvalues --   -0.05865  -0.01977   0.06811   0.07258   0.07649
 Alpha virt. eigenvalues --    0.09583   0.10439   0.10976   0.13316   0.15065
 Alpha virt. eigenvalues --    0.15240   0.17258   0.17799   0.18523   0.20202

 Mulliken charges:
               1
     1  C   -0.267405
     2  O   -0.273300
     3  C    0.346955
     4  O   -0.307340
     5  C    0.120925
     6  C   -0.175285
     7  C   -0.008395
     8  N   -0.226385
     9  C    0.185334
    10  Cl  -0.045425
    11  N   -0.208480
    12  H    0.165897
    13  H    0.165849
    14  H    0.159547
    15  H    0.184798
    16  H    0.182712
 Sum of Mulliken charges =  -0.00000

 Dipole moment (field-independent basis, Debye):
    X=              4.2001    Y=              4.5093    Z=              0.0001  Tot=              6.1624
 Quadrupole moment (field-independent basis, Debye-Ang):
   XX=            -62.8142   YY=            -69.5101   ZZ=            -68.5527
   XY=              3.4136   XZ=              0.0004   YZ=              0.0035

 Normal termination of Gaussian 16 at Tue Sep 17 10:25:35 2024.
