 Gaussian 16, Revision C.02,

 ----------------------------------------------------------------------
 #p B3LYP/6-31G(d,p) EmpiricalDispersion=GD3BJ opt freq scf(xqc,tight)
 integral(grid=ultrafine)
 ----------------------------------------------------------------------

 ----------------------------------
 opt-freq conformers_unique/conf_ac
 ----------------------------------
 Symbolic Z-matrix:
 Charge =  0 Multiplicity = 1

 SCF Done:  E(RB3LYP) =  -951.822906155     A.U. after   15 cycles
 SCF Done:  E(RB3LYP) =  -951.825442950     A.U. after   13 cycles
 SCF Done:  E(RB3LYP) =  -951.825944692     A.U. after   13 cycles
 SCF Done:  E(RB3LYP) =  -951.825808691     A.U. after   14 cycles
 SCF Done:  E(RB3LYP) =  -951.826213362     A.U. after   13 cycles
 SCF Done:  E(RB3LYP) =  -951.826275154     A.U. after   12 cycles
 SCF Done:  E(RB3LYP) =  -951.826292208     A.U. after   12 cycles
 SCF Done:  E(RB3LYP) =  -951.826301604     A.U. after    9 cycles
 SCF Done:  E(RB3LYP) =  -951.826303339     A.U. after    9 cycles
 SCF Done:  E(RB3LYP) =  -951.826303441     A.U. after    7 cycles
 SCF Done:  E(RB3LYP) =  -951.826748090     A.U. after   13 cycles
 SCF Done:  E(RB3LYP) =  -951.827186010     A.U. after   14 cycles
 SCF Done:  E(RB3LYP) =  -951.827412941     A.U. after   11 cycles
 SCF Done:  E(RB3LYP) =  -951.827324689     A.U. after   12 cycles
 SCF Done:  E(RB3LYP) =  -951.827423330     A.U. after   12 cycles
 SCF Done:  E(RB3LYP) =  -951.827447461     A.U. after   10 cycles
 SCF Done:  E(RB3LYP) =  -951.827447928     A.U. after    8 cycles
 Optimization completed.
    -- Stationary point found.
 Normal termination of Gaussian 16 at Tue Sep 17 09:54:38 2024.

 ----------------------------------------------------------------------
 #P Geom=AllCheck Guess=TCheck SCRF=Check GenChk RB3LYP/6-31G(d,p) Freq
 ----------------------------------------------------------------------

 Structure from the checkpoint file:  "smiles_00119_conf_2.chk"
 ----------------------------------
 opt-freq conformers_unique/conf_ac
 ----------------------------------
 Charge =  0 Multiplicity = 1

 SCF Done:  E(RB3LYP) =  -951.827447928     A.U. after    1 cycles

                      1                      2                      3
                      A                      A                      A
 Frequencies --     29.9657               102.0174               127.3259
 Red. masses --      6.5490                 3.0707                 1.2139
 Frc consts  --      0.0035                 0.0188                 0.0116
 IR Inten    --      0.5267                 0.5783                 0.0715

                      4                      5                      6
                      A                      A                      A
 Frequencies --    133.0709               161.5987               202.3526
 Red. masses --      5.8853                 6.4809                 5.8595
 Frc consts  --      0.0614                 0.0997                 0.1414
 IR Inten    --      0.3881                 3.4053                 5.0142

                      7                      8                      9
                      A                      A                      A
 Frequencies --    258.6732               338.0175               381.8525
 Red. masses --      7.2726                 4.4010                13.1772
 Frc consts  --      0.2867                 0.2963                 1.1320
 IR Inten    --      2.7317                14.3802                 0.2417

                     10                     11                     12
                      A                      A                      A
 Frequencies --    434.6247               439.2336               517.4987
 Red. masses --     12.3908                 3.9376                 7.9880
 Frc consts  --      1.3790                 0.4476                 1.2604
 IR Inten    --      7.6494                 0.0243                 5.0108

                     13                     14                     15
                      A                      A                      A
 Frequencies --    554.9538               686.4608               760.5526
 Red. masses --      7.5144                 8.1495                 8.7697
 Frc consts  --      1.3635                 2.2626                 2.9888
 IR Inten    --      2.4076                18.0423                24.8630

                     16                     17                     18
                      A                      A                      A
 Frequencies --    781.5332               802.0951               871.2095
 Red. masses --      7.2827                 3.8249                 6.0507
 Frc consts  --      2.6208                 1.4498                 2.7058
 IR Inten    --     54.3089                 0.2489                42.4099

                     19                     20                     21
                      A                      A                      A
 Frequencies --    881.1018              1006.1655              1006.5118
 Red. masses --      1.5552                 1.4001                 9.8036
 Frc consts  --      0.7114                 0.8351                 5.8516
 IR Inten    --     11.0259                 0.0118                 0.7840

                     22                     23                     24
                      A                      A                      A
 Frequencies --   1024.6241              1116.6470              1180.0872
 Red. masses --      8.5738                 1.4885                 1.2763
 Frc consts  --      5.3034                 1.0935                 1.0472
 IR Inten    --     55.5605                 2.6339                 0.8853

                     25                     26                     27
                      A                      A                      A
 Frequencies --   1187.1481              1226.3293              1229.2465
 Red. masses --      2.6201                 2.4923                 2.5083
 Frc consts  --      2.1756                 2.2083                 2.2331
 IR Inten    --     52.6333                24.2276               179.0798

                     28                     29                     30
                      A                      A                      A
 Frequencies --   1265.2527              1307.9819              1388.8951
 Red. masses --      8.9142                 4.9527                 2.8945
 Frc consts  --      8.4079                 4.9922                 3.2898
 IR Inten    --     90.6706               291.6903               247.5037

                     31                     32                     33
                      A                      A                      A
 Frequencies --   1467.8282              1483.2163              1495.3148
 Red. masses --      2.2403                 1.3117                 1.0458
 Frc consts  --      2.8439                 1.7002                 1.3777
 IR Inten    --     12.4009                12.1940                 7.2922

                     34                     35                     36
                      A                      A                      A
 Frequencies --   1508.7717              1602.2886              1614.5740
 Red. masses --      1.0509                 7.3201                 6.3895
 Frc consts  --      1.4094                11.0726                 9.8138
 IR Inten    --      9.0237               124.3813               110.1786

                     37                     38                     39
                      A                      A                      A
 Frequencies --   1841.7949              3069.8373              3149.5160
 Red. masses --     12.0497                 1.0296                 1.1072
 Frc consts  --     24.0830                 5.7168                 6.4711
 IR Inten    --    168.9158                29.0064                15.9750

                     40                     41                     42
                      A                      A                      A
 Frequencies --   3183.3237              3186.0252              3259.2856
 Red. masses --      1.1075                 1.0920                 1.0942
 Frc consts  --      6.6122                 6.5310                 6.8485
 IR Inten    --     12.3701                16.3891                 0.3046

 - Thermochemistry -
 -------------------
 Temperature   298.150 Kelvin.  Pressure   1.00000 Atm.
 Atom     1 has atomic number  6 and mass  12.00000

 Molecular mass:   172.00396 amu.
 Principal axes and moments of inertia in atomic units:
                           1         2         3
     Eigenvalues --   787.977793449.450164226.05797
           X            0.99995  -0.00994   0.00000
           Y            0.00994   0.99995   0.00000
           Z           -0.00000  -0.00000   1.00000
 This molecule is an asymmetric top.
 Rotational symmetry number  1.
 Warning -- assumption of classical behavior for rotation
           may cause significant error
 Rotational temperatures (Kelvin)      0.10992     0.02511     0.02050
 Rotational constants (GHZ):           2.29035     0.52320     0.42705
 Zero-point vibrational energy     288687.6 (Joules/Mol)
                                   68.99800 (Kcal/Mol)
 Warning -- explicit consideration of  13 degrees of freedom as
           vibrations may cause significant error
 Vibrational temperatures:     43.11   146.78   183.19   191.46   232.50
          (Kelvin)            291.14   372.17   486.33   549.40   625.33
                              631.96   744.57   798.45   987.66  1094.27
                             1124.45  1154.04  1253.48  1267.71  1447.65
                             1448.15  1474.21  1606.61  1697.88  1708.04
                             1764.41  1768.61  1820.42  1881.89  1998.31
                             2111.88  2134.02  2151.42  2170.79  2305.34
                             2323.01  2649.93  4416.81  4531.45  4580.09
                             4583.98  4689.39

 Zero-point correction=                           0.109955 (Hartree/Particle)
 Thermal correction to Energy=                    0.119801
 Thermal correction to Enthalpy=                  0.120745
 Thermal correction to Gibbs Free Energy=         0.072943
 Sum of electronic and zero-point Energies=           -951.717493
 Sum of electronic and thermal Energies=              -951.707647
 Sum of electronic and thermal Enthalpies=            -951.706703
 Sum of electronic and thermal Free Energies=         -951.754505

                     E (Thermal)             CV                S
                      KCal/Mol        Cal/Mol-Kelvin    Cal/Mol-Kelvin
 Total                   75.176             34.431            100.609
 Electronic               0.000              0.000              0.000
 Translational            0.889              2.981             41.335
 Rotational               0.889              2.981             30.819
 Vibrational             73.399             28.469             28.455
 Vibration     1          0.594              1.984              5.832
 Vibration     2          0.604              1.948              3.415
 Vibration     3          0.611              1.926              2.986
 Vibration     4          0.613              1.920              2.901
 Vibration     5          0.622              1.889              2.531
 Vibration     6          0.639              1.837              2.112
 Vibration     7          0.667              1.748              1.671
 Vibration     8          0.718              1.600              1.221
 Vibration     9          0.751              1.509              1.032
 Vibration    10          0.795              1.395              0.844
 Vibration    11          0.799              1.385              0.829
 Vibration    12          0.873              1.211              0.616
 Vibration    13          0.910              1.129              0.534

 Optimization completed.
    -- Stationary point found.
 Normal termination of Gaussian 16 at Tue Sep 17 09:55:22 2024.

 ----------------------------------------------------------------------
 #p M062X/def2tzvp geom=check guess=read scf(xqc,tight) integral(grid=u
 ltrafine) scrf(SMD, solvent=1,4-Dioxane) polar prop=efg volume
 ----------------------------------------------------------------------

 ---
 spe
 ---
 Structure from the checkpoint file:  "smiles_00119_conf_2.chk"
 Charge =  0 Multiplicity = 1

 SCF Done:  E(RM062X) =  -951.802873579     A.U. after   12 cycles

  Exact polarizability:     151.506       7.261     122.492      -0.001      -0.000      64.479
 Approx polarizability:     148.654       7.953     146.994      -0.002      -0.001      79.576

 Normal termination of Gaussian 16 at Tue Sep 17 10:16:39 2024.
 Gaussian 16:  ES64L-G16RevC.02  7-Dec-2021

 ----------------------------------------------------------------------
 #p M062X/def2tzvp geom=check guess=read scf(xqc,tight) integral(grid=u
 ltrafine) scrf(SMD, solvent=1,4-Dioxane) nmr=giao
 ----------------------------------------------------------------------

 ---
 spe
 ---
 Structure from the checkpoint file:  "smiles_00119_conf_2.chk"
 Charge =  0 Multiplicity = 1

                         Standard orientation:
 ---------------------------------------------------------------------
 Center     Atomic      Atomic             Coordinates (Angstroms)
 Number     Number       Type             X           Y           Z
 ---------------------------------------------------------------------
      1          6           0        4.095401   -0.184263    0.000132
      2          8           0        2.775771    0.388466   -0.000275
      3          6           0        1.767677   -0.509237   -0.000136
      4          8           0        1.918466   -1.706390    0.000230
      5          6           0        0.430274    0.190011   -0.000126
      6          6           0        0.315116    1.580294   -0.000108
      7          6           0       -0.981522    2.090362    0.000127
      8          7           0       -2.064487    1.305862    0.000213
      9          6           0       -1.816342   -0.002072    0.000025
     10         17           0       -3.221330   -1.042926   -0.000056
     11          7           0       -0.641191   -0.613687   -0.000051
     12          1           0        4.240608   -0.802912   -0.888134
     13          1           0        4.240654   -0.801669    0.889276
     14          1           0        4.782064    0.660889   -0.000444
     15          1           0        1.187180    2.219175   -0.000283
     16          1           0       -1.165671    3.161838    0.000279
 ---------------------------------------------------------------------

 SCF Done:  E(RM062X) =  -951.802873579     A.U. after    1 cycles

      1  C    Isotropic =   129.8424   Anisotropy =    73.4624

      2  O    Isotropic =   128.6061   Anisotropy =   175.9292

      3  C    Isotropic =     4.3126   Anisotropy =    94.5642

      4  O    Isotropic =  -162.6542   Anisotropy =   757.6948

      5  C    Isotropic =     2.7954   Anisotropy =   194.3795

      6  C    Isotropic =    45.0850   Anisotropy =   208.2477

      7  C    Isotropic =    -3.3797   Anisotropy =   226.0499

      8  N    Isotropic =  -123.9377   Anisotropy =   552.7818

      9  C    Isotropic =    -7.0429   Anisotropy =   105.0399

     10  Cl   Isotropic =   544.7689   Anisotropy =   695.1005

     11  N    Isotropic =  -112.3748   Anisotropy =   528.7611

     12  H    Isotropic =    27.8586   Anisotropy =     7.9382

     13  H    Isotropic =    27.8600   Anisotropy =     7.9408

     14  H    Isotropic =    27.9578   Anisotropy =     7.4172

     15  H    Isotropic =    23.0718   Anisotropy =     9.5274

     16  H    Isotropic =    22.1039   Anisotropy =     7.6208

 The electronic state is 1-A.
 Alpha  occ. eigenvalues -- -102.65422 -19.68997 -19.63638 -14.78741 -14.78707
 Alpha  occ. eigenvalues --  -10.69400 -10.68513 -10.63132 -10.61873 -10.59761
 Alpha  occ. eigenvalues --  -10.58080  -9.81712  -7.53906  -7.53404  -7.53355
 Alpha  occ. eigenvalues --   -1.25021  -1.15934  -1.13775  -1.02993  -0.97335
 Alpha  occ. eigenvalues --   -0.90009  -0.84528  -0.78009  -0.75266  -0.67785
 Alpha  occ. eigenvalues --   -0.63832  -0.62049  -0.58393  -0.57504  -0.55850
 Alpha  occ. eigenvalues --   -0.54771  -0.54263  -0.50691  -0.49432  -0.48341
 Alpha  occ. eigenvalues --   -0.44838  -0.42103  -0.40786  -0.40206  -0.39496
 Alpha  occ. eigenvalues --   -0.39233  -0.37896  -0.35037  -0.34329
 Alpha virt. eigenvalues --   -0.05864  -0.01979   0.06810   0.07256   0.07648
 Alpha virt. eigenvalues --    0.09583   0.10439   0.10975   0.13315   0.15065
 Alpha virt. eigenvalues --    0.15239   0.17257   0.17798   0.18524   0.20200

 Mulliken charges:
               1
     1  C   -0.267409
     2  O   -0.273301
     3  C    0.346974
     4  O   -0.307371
     5  C    0.120880
     6  C   -0.175335
     7  C   -0.008332
     8  N   -0.226368
     9  C    0.185398
    10  Cl  -0.045441
    11  N   -0.208532
    12  H    0.165877
    13  H    0.165881
    14  H    0.159557
    15  H    0.184803
    16  H    0.182718
 Sum of Mulliken charges =  -0.00000

 Dipole moment (field-independent basis, Debye):
    X=              4.2009    Y=              4.5094    Z=             -0.0003  Tot=              6.1630
 Quadrupole moment (field-independent basis, Debye-Ang):
   XX=            -62.8104   YY=            -69.5137   ZZ=            -68.5532
   XY=              3.4153   XZ=              0.0009   YZ=              0.0010

 Normal termination of Gaussian 16 at Tue Sep 17 10:25:00 2024.
