 Gaussian 16, Revision C.02,

 ----------------------------------------------------------------------
 #p B3LYP/6-31G(d,p) EmpiricalDispersion=GD3BJ opt freq scf(xqc,tight)
 integral(grid=ultrafine)
 ----------------------------------------------------------------------

 ----------------------------------
 opt-freq conformers_unique/conf_ad
 ----------------------------------
 Symbolic Z-matrix:
 Charge =  0 Multiplicity = 1

 SCF Done:  E(RB3LYP) =  -951.818939740     A.U. after   15 cycles
 SCF Done:  E(RB3LYP) =  -951.821423864     A.U. after   12 cycles
 SCF Done:  E(RB3LYP) =  -951.822111256     A.U. after   13 cycles
 SCF Done:  E(RB3LYP) =  -951.823136038     A.U. after   15 cycles
 SCF Done:  E(RB3LYP) =  -951.824637737     A.U. after   13 cycles
 SCF Done:  E(RB3LYP) =  -951.826507197     A.U. after   14 cycles
 SCF Done:  E(RB3LYP) =  -951.827224067     A.U. after   15 cycles
 SCF Done:  E(RB3LYP) =  -951.827408010     A.U. after   12 cycles
 SCF Done:  E(RB3LYP) =  -951.827439403     A.U. after   12 cycles
 SCF Done:  E(RB3LYP) =  -951.827443688     A.U. after    9 cycles
 SCF Done:  E(RB3LYP) =  -951.827445909     A.U. after    9 cycles
 SCF Done:  E(RB3LYP) =  -951.827447208     A.U. after    9 cycles
 SCF Done:  E(RB3LYP) =  -951.827447698     A.U. after    8 cycles
 SCF Done:  E(RB3LYP) =  -951.827448014     A.U. after    8 cycles
 SCF Done:  E(RB3LYP) =  -951.827448056     A.U. after    7 cycles
 Optimization completed.
    -- Stationary point found.
 Normal termination of Gaussian 16 at Tue Sep 17 09:52:56 2024.

 ----------------------------------------------------------------------
 #P Geom=AllCheck Guess=TCheck SCRF=Check GenChk RB3LYP/6-31G(d,p) Freq
 ----------------------------------------------------------------------

 Structure from the checkpoint file:  "smiles_00119_conf_3.chk"
 ----------------------------------
 opt-freq conformers_unique/conf_ad
 ----------------------------------
 Charge =  0 Multiplicity = 1

 SCF Done:  E(RB3LYP) =  -951.827448056     A.U. after    1 cycles

                      1                      2                      3
                      A                      A                      A
 Frequencies --     30.0155               102.0595               127.5192
 Red. masses --      6.5534                 3.0857                 1.2116
 Frc consts  --      0.0035                 0.0189                 0.0116
 IR Inten    --      0.5285                 0.5776                 0.0729

                      4                      5                      6
                      A                      A                      A
 Frequencies --    133.0603               161.5768               202.3653
 Red. masses --      5.8866                 6.4800                 5.8594
 Frc consts  --      0.0614                 0.0997                 0.1414
 IR Inten    --      0.3879                 3.4023                 5.0117

                      7                      8                      9
                      A                      A                      A
 Frequencies --    258.7059               338.0822               381.8649
 Red. masses --      7.2737                 4.4000                13.1773
 Frc consts  --      0.2868                 0.2963                 1.1321
 IR Inten    --      2.7276                14.3864                 0.2426

                     10                     11                     12
                      A                      A                      A
 Frequencies --    434.6845               439.2185               517.5290
 Red. masses --     12.3892                 3.9368                 7.9895
 Frc consts  --      1.3792                 0.4475                 1.2608
 IR Inten    --      7.6434                 0.0248                 5.0058

                     13                     14                     15
                      A                      A                      A
 Frequencies --    554.9589               686.4963               760.5624
 Red. masses --      7.5175                 8.1486                 8.7727
 Frc consts  --      1.3641                 2.2626                 2.9899
 IR Inten    --      2.4075                18.0512                24.8608

                     16                     17                     18
                      A                      A                      A
 Frequencies --    781.5562               802.0981               871.2341
 Red. masses --      7.2825                 3.8259                 6.0511
 Frc consts  --      2.6209                 1.4502                 2.7062
 IR Inten    --     54.2312                 0.2490                42.4010

                     19                     20                     21
                      A                      A                      A
 Frequencies --    881.1430              1006.2026              1006.4911
 Red. masses --      1.5548                 1.4002                 9.8024
 Frc consts  --      0.7112                 0.8352                 5.8506
 IR Inten    --     11.0260                 0.0118                 0.8076

                     22                     23                     24
                      A                      A                      A
 Frequencies --   1024.6541              1116.5815              1180.1015
 Red. masses --      8.5738                 1.4892                 1.2763
 Frc consts  --      5.3037                 1.0939                 1.0472
 IR Inten    --     55.5358                 2.6741                 0.8851

                     25                     26                     27
                      A                      A                      A
 Frequencies --   1187.1354              1226.3069              1229.2157
 Red. masses --      2.6227                 2.4900                 2.5079
 Frc consts  --      2.1777                 2.2062                 2.2327
 IR Inten    --     52.7322                23.8922               180.3598

                     28                     29                     30
                      A                      A                      A
 Frequencies --   1265.1511              1308.0969              1389.3224
 Red. masses --      8.9010                 4.9553                 2.8890
 Frc consts  --      8.3941                 4.9957                 3.2855
 IR Inten    --     91.0765               290.5478               247.1882

                     31                     32                     33
                      A                      A                      A
 Frequencies --   1467.5936              1483.1992              1495.3073
 Red. masses --      2.2506                 1.3094                 1.0458
 Frc consts  --      2.8560                 1.6971                 1.3777
 IR Inten    --     12.3426                12.2799                 7.2921

                     34                     35                     36
                      A                      A                      A
 Frequencies --   1508.7855              1602.4242              1614.5571
 Red. masses --      1.0509                 7.3024                 6.3937
 Frc consts  --      1.4095                11.0477                 9.8199
 IR Inten    --      9.0183               123.8058               110.7090

                     37                     38                     39
                      A                      A                      A
 Frequencies --   1841.8291              3069.8163              3149.4778
 Red. masses --     12.0499                 1.0296                 1.1072
 Frc consts  --     24.0842                 5.7168                 6.4710
 IR Inten    --    168.8834                29.0053                15.9778

                     40                     41                     42
                      A                      A                      A
 Frequencies --   3183.3222              3185.8691              3259.2246
 Red. masses --      1.1075                 1.0920                 1.0942
 Frc consts  --      6.6121                 6.5304                 6.8482
 IR Inten    --     12.3247                16.4606                 0.3029

 - Thermochemistry -
 -------------------
 Temperature   298.150 Kelvin.  Pressure   1.00000 Atm.
 Atom     1 has atomic number  6 and mass  12.00000

 Molecular mass:   172.00396 amu.
 Principal axes and moments of inertia in atomic units:
                           1         2         3
     Eigenvalues --   787.938743449.386154225.95529
           X            0.99995  -0.00994  -0.00000
           Y            0.00994   0.99995  -0.00000
           Z            0.00000   0.00000   1.00000
 This molecule is an asymmetric top.
 Rotational symmetry number  1.
 Warning -- assumption of classical behavior for rotation
           may cause significant error
 Rotational temperatures (Kelvin)      0.10992     0.02511     0.02050
 Rotational constants (GHZ):           2.29046     0.52321     0.42706
 Zero-point vibrational energy     288691.2 (Joules/Mol)
                                   68.99885 (Kcal/Mol)
 Warning -- explicit consideration of  13 degrees of freedom as
           vibrations may cause significant error
 Vibrational temperatures:     43.19   146.84   183.47   191.44   232.47
          (Kelvin)            291.16   372.22   486.42   549.42   625.41
                              631.94   744.61   798.46   987.72  1094.28
                             1124.49  1154.04  1253.51  1267.77  1447.70
                             1448.12  1474.25  1606.51  1697.90  1708.02
                             1764.38  1768.57  1820.27  1882.06  1998.93
                             2111.54  2133.99  2151.41  2170.81  2305.53
                             2322.99  2649.98  4416.78  4531.40  4580.09
                             4583.76  4689.30

 Zero-point correction=                           0.109957 (Hartree/Particle)
 Thermal correction to Energy=                    0.119802
 Thermal correction to Enthalpy=                  0.120746
 Thermal correction to Gibbs Free Energy=         0.072947
 Sum of electronic and zero-point Energies=           -951.717491
 Sum of electronic and thermal Energies=              -951.707646
 Sum of electronic and thermal Enthalpies=            -951.706702
 Sum of electronic and thermal Free Energies=         -951.754501

                     E (Thermal)             CV                S
                      KCal/Mol        Cal/Mol-Kelvin    Cal/Mol-Kelvin
 Total                   75.177             34.430            100.601
 Electronic               0.000              0.000              0.000
 Translational            0.889              2.981             41.335
 Rotational               0.889              2.981             30.819
 Vibrational             73.399             28.468             28.447
 Vibration     1          0.594              1.984              5.828
 Vibration     2          0.604              1.948              3.415
 Vibration     3          0.611              1.926              2.983
 Vibration     4          0.613              1.920              2.901
 Vibration     5          0.622              1.890              2.531
 Vibration     6          0.639              1.837              2.111
 Vibration     7          0.668              1.748              1.670
 Vibration     8          0.718              1.599              1.221
 Vibration     9          0.751              1.509              1.032
 Vibration    10          0.795              1.395              0.843
 Vibration    11          0.799              1.385              0.829
 Vibration    12          0.873              1.211              0.616
 Vibration    13          0.910              1.129              0.534

 Optimization completed.
    -- Stationary point found.
 Normal termination of Gaussian 16 at Tue Sep 17 09:53:53 2024.

 ----------------------------------------------------------------------
 #p M062X/def2tzvp geom=check guess=read scf(xqc,tight) integral(grid=u
 ltrafine) scrf(SMD, solvent=1,4-Dioxane) polar prop=efg volume
 ----------------------------------------------------------------------

 ---
 spe
 ---
 Structure from the checkpoint file:  "smiles_00119_conf_3.chk"
 Charge =  0 Multiplicity = 1

 SCF Done:  E(RM062X) =  -951.802874770     A.U. after   12 cycles

  Exact polarizability:     151.506       7.256     122.491       0.000      -0.000      64.478
 Approx polarizability:     148.657       7.948     146.992       0.000       0.000      79.575

 Normal termination of Gaussian 16 at Tue Sep 17 10:19:13 2024.
 Gaussian 16:  ES64L-G16RevC.02  7-Dec-2021

 ----------------------------------------------------------------------
 #p M062X/def2tzvp geom=check guess=read scf(xqc,tight) integral(grid=u
 ltrafine) scrf(SMD, solvent=1,4-Dioxane) nmr=giao
 ----------------------------------------------------------------------

 ---
 spe
 ---
 Structure from the checkpoint file:  "smiles_00119_conf_3.chk"
 Charge =  0 Multiplicity = 1

                         Standard orientation:
 ---------------------------------------------------------------------
 Center     Atomic      Atomic             Coordinates (Angstroms)
 Number     Number       Type             X           Y           Z
 ---------------------------------------------------------------------
      1          6           0        4.095320   -0.184386   -0.000028
      2          8           0        2.775802    0.388599    0.000020
      3          6           0        1.767676   -0.509121    0.000017
      4          8           0        1.918499   -1.706265   -0.000006
      5          6           0        0.430355    0.190146    0.000016
      6          6           0        0.315096    1.580273    0.000010
      7          6           0       -0.981705    2.090262    0.000004
      8          7           0       -2.064556    1.305843   -0.000019
      9          6           0       -1.816235   -0.002297    0.000006
     10         17           0       -3.221257   -1.042931   -0.000006
     11          7           0       -0.641208   -0.613690    0.000020
     12          1           0        4.240421   -0.802524    0.888625
     13          1           0        4.782132    0.660645    0.000028
     14          1           0        4.240423   -0.802413   -0.888759
     15          1           0        1.187029    2.219344    0.000014
     16          1           0       -1.165727    3.161774   -0.000060
 ---------------------------------------------------------------------

 SCF Done:  E(RM062X) =  -951.802874770     A.U. after    1 cycles

      1  C    Isotropic =   129.8422   Anisotropy =    73.4529

      2  O    Isotropic =   128.5964   Anisotropy =   175.9200

      3  C    Isotropic =     4.3097   Anisotropy =    94.5727

      4  O    Isotropic =  -162.6755   Anisotropy =   757.7195

      5  C    Isotropic =     2.8160   Anisotropy =   194.3576

      6  C    Isotropic =    45.0853   Anisotropy =   208.2400

      7  C    Isotropic =    -3.3953   Anisotropy =   226.0794

      8  N    Isotropic =  -124.0331   Anisotropy =   552.8384

      9  C    Isotropic =    -7.0403   Anisotropy =   105.0687

     10  Cl   Isotropic =   544.8494   Anisotropy =   694.9113

     11  N    Isotropic =  -112.2698   Anisotropy =   528.7001

     12  H    Isotropic =    27.8594   Anisotropy =     7.9393

     13  H    Isotropic =    27.9580   Anisotropy =     7.4172

     14  H    Isotropic =    27.8596   Anisotropy =     7.9396

     15  H    Isotropic =    23.0718   Anisotropy =     9.5262

     16  H    Isotropic =    22.1030   Anisotropy =     7.6215

 The electronic state is 1-A.
 Alpha  occ. eigenvalues -- -102.65422 -19.68997 -19.63639 -14.78740 -14.78708
 Alpha  occ. eigenvalues --  -10.69400 -10.68512 -10.63131 -10.61874 -10.59760
 Alpha  occ. eigenvalues --  -10.58080  -9.81712  -7.53906  -7.53404  -7.53356
 Alpha  occ. eigenvalues --   -1.25020  -1.15933  -1.13775  -1.02992  -0.97338
 Alpha  occ. eigenvalues --   -0.90010  -0.84525  -0.78009  -0.75265  -0.67786
 Alpha  occ. eigenvalues --   -0.63832  -0.62049  -0.58392  -0.57503  -0.55849
 Alpha  occ. eigenvalues --   -0.54773  -0.54263  -0.50691  -0.49431  -0.48340
 Alpha  occ. eigenvalues --   -0.44838  -0.42104  -0.40787  -0.40206  -0.39496
 Alpha  occ. eigenvalues --   -0.39233  -0.37897  -0.35037  -0.34329
 Alpha virt. eigenvalues --   -0.05865  -0.01978   0.06810   0.07258   0.07650
 Alpha virt. eigenvalues --    0.09583   0.10439   0.10976   0.13316   0.15065
 Alpha virt. eigenvalues --    0.15240   0.17257   0.17799   0.18524   0.20202

 Mulliken charges:
               1
     1  C   -0.267409
     2  O   -0.273314
     3  C    0.346970
     4  O   -0.307364
     5  C    0.120932
     6  C   -0.175297
     7  C   -0.008380
     8  N   -0.226410
     9  C    0.185373
    10  Cl  -0.045393
    11  N   -0.208518
    12  H    0.165872
    13  H    0.159549
    14  H    0.165873
    15  H    0.184808
    16  H    0.182709
 Sum of Mulliken charges =  -0.00000

 Dipole moment (field-independent basis, Debye):
    X=              4.1996    Y=              4.5090    Z=             -0.0000  Tot=              6.1618
 Quadrupole moment (field-independent basis, Debye-Ang):
   XX=            -62.8142   YY=            -69.5116   ZZ=            -68.5531
   XY=              3.4151   XZ=             -0.0002   YZ=             -0.0001

 Normal termination of Gaussian 16 at Tue Sep 17 10:28:30 2024.
