 Gaussian 16, Revision C.02,

 ----------------------------------------------------------------------
 #p B3LYP/6-31G(d,p) EmpiricalDispersion=GD3BJ opt freq scf(xqc,tight)
 integral(grid=ultrafine)
 ----------------------------------------------------------------------

 ----------------------------------
 opt-freq conformers_unique/conf_aa
 ----------------------------------
 Symbolic Z-matrix:
 Charge =  0 Multiplicity = 1

 SCF Done:  E(RB3LYP) =  -951.827402341     A.U. after   15 cycles
 SCF Done:  E(RB3LYP) =  -951.829726817     A.U. after   12 cycles
 SCF Done:  E(RB3LYP) =  -951.829921354     A.U. after   11 cycles
 SCF Done:  E(RB3LYP) =  -951.829938535     A.U. after    9 cycles
 SCF Done:  E(RB3LYP) =  -951.829939705     A.U. after    8 cycles
 SCF Done:  E(RB3LYP) =  -951.829939855     A.U. after    7 cycles
 Optimization completed.
    -- Stationary point found.
 Normal termination of Gaussian 16 at Tue Sep 17 09:51:20 2024.

 ----------------------------------------------------------------------
 #P Geom=AllCheck Guess=TCheck SCRF=Check GenChk RB3LYP/6-31G(d,p) Freq
 ----------------------------------------------------------------------

 Structure from the checkpoint file:  "smiles_00119_conf_0.chk"
 ----------------------------------
 opt-freq conformers_unique/conf_aa
 ----------------------------------
 Charge =  0 Multiplicity = 1

 SCF Done:  E(RB3LYP) =  -951.829939855     A.U. after    1 cycles

                      1                      2                      3
                      A                      A                      A
 Frequencies --     42.5673               104.3497               121.7796
 Red. masses --      6.5362                 3.2021                 5.8713
 Frc consts  --      0.0070                 0.0205                 0.0513
 IR Inten    --      3.2243                 0.5395                 1.9841

                      4                      5                      6
                      A                      A                      A
 Frequencies --    130.1429               166.3554               206.9805
 Red. masses --      1.2128                 6.5852                 5.7382
 Frc consts  --      0.0121                 0.1074                 0.1448
 IR Inten    --      0.0207                 3.4990                 5.3342

                      7                      8                      9
                      A                      A                      A
 Frequencies --    277.7095               347.5506               360.3733
 Red. masses --      5.7921                 8.5426                 5.9537
 Frc consts  --      0.2632                 0.6080                 0.4556
 IR Inten    --      4.0268                12.2509                12.3182

                     10                     11                     12
                      A                      A                      A
 Frequencies --    429.9163               440.6533               526.1951
 Red. masses --     12.8223                 3.8500                 8.7641
 Frc consts  --      1.3963                 0.4405                 1.4297
 IR Inten    --      5.0091                 0.0182                 3.7771

                     13                     14                     15
                      A                      A                      A
 Frequencies --    553.4627               686.8119               763.5736
 Red. masses --      7.5913                 8.3385                 9.3033
 Frc consts  --      1.3701                 2.3175                 3.1959
 IR Inten    --      2.0640                21.9315                24.8927

                     16                     17                     18
                      A                      A                      A
 Frequencies --    784.9919               803.1431               889.4417
 Red. masses --      7.1292                 4.0490                 6.4995
 Frc consts  --      2.5883                 1.5388                 3.0295
 IR Inten    --     60.1301                 0.4341                 9.7465

                     19                     20                     21
                      A                      A                      A
 Frequencies --    893.6567              1005.7242              1011.1511
 Red. masses --      1.5063                 9.6013                 1.3975
 Frc consts  --      0.7088                 5.7219                 0.8419
 IR Inten    --     11.8020                 7.4883                 0.0096

                     22                     23                     24
                      A                      A                      A
 Frequencies --   1012.4187              1107.1007              1179.2319
 Red. masses --      7.5645                 1.4302                 1.2777
 Frc consts  --      4.5683                 1.0328                 1.0468
 IR Inten    --     28.0947                 4.3270                 0.8896

                     25                     26                     27
                      A                      A                      A
 Frequencies --   1186.2104              1223.0142              1234.0094
 Red. masses --      2.4151                 2.1866                 3.2797
 Frc consts  --      2.0022                 1.9270                 2.9425
 IR Inten    --     66.2849                94.4361               146.4532

                     28                     29                     30
                      A                      A                      A
 Frequencies --   1263.9897              1354.2188              1382.0750
 Red. masses --     10.7795                 3.7278                 3.1958
 Frc consts  --     10.1470                 4.0279                 3.5966
 IR Inten    --     59.0816               362.5710               130.7531

                     31                     32                     33
                      A                      A                      A
 Frequencies --   1467.3661              1487.1913              1496.9859
 Red. masses --      2.0360                 1.4760                 1.0460
 Frc consts  --      2.5829                 1.9234                 1.3811
 IR Inten    --     48.9763                39.6062                 7.5091

                     34                     35                     36
                      A                      A                      A
 Frequencies --   1506.4691              1606.9151              1614.7121
 Red. masses --      1.0585                 7.1665                 6.5671
 Frc consts  --      1.4154                10.9030                10.0882
 IR Inten    --      4.3918               138.6419                82.5546

                     37                     38                     39
                      A                      A                      A
 Frequencies --   1807.7198              3068.9685              3147.3635
 Red. masses --     11.6777                 1.0301                 1.1071
 Frc consts  --     22.4839                 5.7162                 6.4616
 IR Inten    --    173.1452                27.6383                17.3989

                     40                     41                     42
                      A                      A                      A
 Frequencies --   3187.2336              3187.9975              3253.2572
 Red. masses --      1.1070                 1.0921                 1.0944
 Frc consts  --      6.6254                 6.5394                 6.8246
 IR Inten    --     13.4718                13.5625                 1.7426

 - Thermochemistry -
 -------------------
 Temperature   298.150 Kelvin.  Pressure   1.00000 Atm.
 Atom     1 has atomic number  6 and mass  12.00000

 Molecular mass:   172.00396 amu.
 Principal axes and moments of inertia in atomic units:
                           1         2         3
     Eigenvalues --  1001.058143086.629854076.30893
           X            0.99914  -0.04156  -0.00000
           Y            0.04156   0.99914  -0.00000
           Z            0.00000   0.00000   1.00000
 This molecule is an asymmetric top.
 Rotational symmetry number  1.
 Warning -- assumption of classical behavior for rotation
           may cause significant error
 Rotational temperatures (Kelvin)      0.08652     0.02806     0.02125
 Rotational constants (GHZ):           1.80283     0.58470     0.44274
 Zero-point vibrational energy     289023.6 (Joules/Mol)
                                   69.07831 (Kcal/Mol)
 Warning -- explicit consideration of  13 degrees of freedom as
           vibrations may cause significant error
 Vibrational temperatures:     61.24   150.14   175.21   187.25   239.35
          (Kelvin)            297.80   399.56   500.05   518.50   618.55
                              634.00   757.08   796.31   988.17  1098.61
                             1129.43  1155.54  1279.71  1285.77  1447.01
                             1454.82  1456.64  1592.87  1696.65  1706.69
                             1759.64  1775.46  1818.60  1948.42  1988.50
                             2111.21  2139.74  2153.83  2167.47  2311.99
                             2323.21  2600.91  4415.56  4528.35  4585.72
                             4586.82  4680.71

 Zero-point correction=                           0.110083 (Hartree/Particle)
 Thermal correction to Energy=                    0.119873
 Thermal correction to Enthalpy=                  0.120817
 Thermal correction to Gibbs Free Energy=         0.073359
 Sum of electronic and zero-point Energies=           -951.719857
 Sum of electronic and thermal Energies=              -951.710067
 Sum of electronic and thermal Enthalpies=            -951.709123
 Sum of electronic and thermal Free Energies=         -951.756581

                     E (Thermal)             CV                S
                      KCal/Mol        Cal/Mol-Kelvin    Cal/Mol-Kelvin
 Total                   75.222             34.348             99.884
 Electronic               0.000              0.000              0.000
 Translational            0.889              2.981             41.335
 Rotational               0.889              2.981             30.911
 Vibrational             73.444             28.386             27.639
 Vibration     1          0.595              1.980              5.136
 Vibration     2          0.605              1.946              3.371
 Vibration     3          0.609              1.931              3.072
 Vibration     4          0.612              1.923              2.944
 Vibration     5          0.624              1.884              2.476
 Vibration     6          0.641              1.830              2.070
 Vibration     7          0.679              1.715              1.548
 Vibration     8          0.725              1.580              1.177
 Vibration     9          0.735              1.554              1.120
 Vibration    10          0.791              1.405              0.859
 Vibration    11          0.801              1.382              0.825
 Vibration    12          0.881              1.192              0.596
 Vibration    13          0.909              1.132              0.537

                           ! Non-Optimized Parameters !
 Normal termination of Gaussian 16 at Tue Sep 17 09:52:38 2024.

 ----------------------------------------------------------------------
 #p M062X/def2tzvp geom=check guess=read scf(xqc,tight) integral(grid=u
 ltrafine) scrf(SMD, solvent=1,4-Dioxane) polar prop=efg volume
 ----------------------------------------------------------------------

 ---
 spe
 ---
 Structure from the checkpoint file:  "smiles_00119_conf_0.chk"
 Charge =  0 Multiplicity = 1

 SCF Done:  E(RM062X) =  -951.804691334     A.U. after   12 cycles

  Exact polarizability:     143.793       5.778     130.100       0.005      -0.004      64.375
 Approx polarizability:     146.863      11.187     148.629       0.007      -0.005      79.517

 Normal termination of Gaussian 16 at Tue Sep 17 10:26:10 2024.
 Gaussian 16:  ES64L-G16RevC.02  7-Dec-2021

 ----------------------------------------------------------------------
 #p M062X/def2tzvp geom=check guess=read scf(xqc,tight) integral(grid=u
 ltrafine) scrf(SMD, solvent=1,4-Dioxane) nmr=giao
 ----------------------------------------------------------------------

 ---
 spe
 ---
 Structure from the checkpoint file:  "smiles_00119_conf_0.chk"
 Charge =  0 Multiplicity = 1

                         Standard orientation:
 ---------------------------------------------------------------------
 Center     Atomic      Atomic             Coordinates (Angstroms)
 Number     Number       Type             X           Y           Z
 ---------------------------------------------------------------------
      1          6           0        3.576844   -1.403332   -0.000421
      2          8           0        2.177518   -1.068538   -0.000307
      3          6           0        1.910662    0.239033    0.000355
      4          8           0        2.746957    1.120174    0.000647
      5          6           0        0.433309    0.533661    0.000116
      6          6           0        0.021771    1.865509   -0.000135
      7          6           0       -1.353257    2.082955   -0.000376
      8          7           0       -2.239826    1.079943   -0.000285
      9          6           0       -1.715405   -0.142418    0.000075
     10         17           0       -2.861371   -1.464084    0.000132
     11          7           0       -0.434530   -0.486436    0.000207
     12          1           0        4.064455   -0.998830    0.889401
     13          1           0        4.065001   -0.996154   -0.888710
     14          1           0        3.614258   -2.491265   -0.002005
     15          1           0        0.747899    2.667489   -0.000130
     16          1           0       -1.767167    3.088113   -0.000652
 ---------------------------------------------------------------------

 SCF Done:  E(RM062X) =  -951.804691334     A.U. after    1 cycles

      1  C    Isotropic =   129.4006   Anisotropy =    74.0187

      2  O    Isotropic =   128.1762   Anisotropy =   196.5963

      3  C    Isotropic =     0.0069   Anisotropy =   104.3370

      4  O    Isotropic =  -145.0830   Anisotropy =   715.5560

      5  C    Isotropic =     2.6358   Anisotropy =   194.2115

      6  C    Isotropic =    44.3591   Anisotropy =   214.2626

      7  C    Isotropic =    -3.4498   Anisotropy =   224.8814

      8  N    Isotropic =  -123.3302   Anisotropy =   554.6952

      9  C    Isotropic =    -6.1381   Anisotropy =   103.7743

     10  Cl   Isotropic =   546.0543   Anisotropy =   695.7714

     11  N    Isotropic =  -105.9745   Anisotropy =   518.1118

     12  H    Isotropic =    27.8660   Anisotropy =     8.0077

     13  H    Isotropic =    27.8633   Anisotropy =     8.0023

     14  H    Isotropic =    27.8416   Anisotropy =     7.2831

     15  H    Isotropic =    22.8350   Anisotropy =     8.7074

     16  H    Isotropic =    22.0909   Anisotropy =     7.4770

 The electronic state is 1-A.
 Alpha  occ. eigenvalues -- -102.65505 -19.68833 -19.63684 -14.78845 -14.78684
 Alpha  occ. eigenvalues --  -10.69504 -10.68544 -10.63020 -10.61799 -10.59538
 Alpha  occ. eigenvalues --  -10.57860  -9.81794  -7.53988  -7.53486  -7.53439
 Alpha  occ. eigenvalues --   -1.25137  -1.15804  -1.13829  -1.03026  -0.97333
 Alpha  occ. eigenvalues --   -0.89648  -0.84829  -0.78191  -0.74799  -0.67522
 Alpha  occ. eigenvalues --   -0.64300  -0.62123  -0.58378  -0.57235  -0.56376
 Alpha  occ. eigenvalues --   -0.54244  -0.54216  -0.50210  -0.49310  -0.48304
 Alpha  occ. eigenvalues --   -0.44434  -0.42090  -0.40939  -0.40235  -0.39795
 Alpha  occ. eigenvalues --   -0.39086  -0.38184  -0.34873  -0.34277
 Alpha virt. eigenvalues --   -0.05840  -0.01961   0.06745   0.07329   0.07944
 Alpha virt. eigenvalues --    0.09395   0.10789   0.11900   0.13370   0.14482
 Alpha virt. eigenvalues --    0.15348   0.17356   0.17961   0.18356   0.20613

 Mulliken charges:
               1
     1  C   -0.274225
     2  O   -0.234703
     3  C    0.364388
     4  O   -0.353642
     5  C    0.128397
     6  C   -0.181818
     7  C   -0.003372
     8  N   -0.226685
     9  C    0.178266
    10  Cl  -0.047952
    11  N   -0.216449
    12  H    0.163603
    13  H    0.163585
    14  H    0.164334
    15  H    0.193218
    16  H    0.183054
 Sum of Mulliken charges =  -0.00000

 Dipole moment (field-independent basis, Debye):
    X=              2.2886    Y=              1.3583    Z=             -0.0012  Tot=              2.6614
 Quadrupole moment (field-independent basis, Debye-Ang):
   XX=            -71.2026   YY=            -62.9374   ZZ=            -68.5470
   XY=            -10.0355   XZ=             -0.0040   YZ=             -0.0019

 Normal termination of Gaussian 16 at Tue Sep 17 10:38:14 2024.
