 Gaussian 16, Revision C.02,

 ----------------------------------------------------------------------
 #p B3LYP/6-31G(d,p) EmpiricalDispersion=GD3BJ opt freq scf(xqc,tight)
 integral(grid=ultrafine)
 ----------------------------------------------------------------------

 ----------------------------------
 opt-freq conformers_unique/conf_aa
 ----------------------------------
 Symbolic Z-matrix:
 Charge =  0 Multiplicity = 1

 SCF Done:  E(RB3LYP) =  -2911.65466522     A.U. after   15 cycles
 SCF Done:  E(RB3LYP) =  -2911.65632430     A.U. after   14 cycles
 SCF Done:  E(RB3LYP) =  -2911.65564531     A.U. after   15 cycles
 SCF Done:  E(RB3LYP) =  -2911.65647402     A.U. after   11 cycles
 SCF Done:  E(RB3LYP) =  -2911.65647523     A.U. after    9 cycles
 Optimization completed.
    -- Stationary point found.
 Normal termination of Gaussian 16 at Tue Sep 17 09:54:30 2024.

 ----------------------------------------------------------------------
 #P Geom=AllCheck Guess=TCheck SCRF=Check GenChk RB3LYP/6-31G(d,p) Freq
 ----------------------------------------------------------------------

 Structure from the checkpoint file:  "smiles_00038_conf_0.chk"
 ----------------------------------
 opt-freq conformers_unique/conf_aa
 ----------------------------------
 Charge =  0 Multiplicity = 1

 SCF Done:  E(RB3LYP) =  -2911.65647523     A.U. after    1 cycles

                      1                      2                      3
                      A                      A                      A
 Frequencies --    119.2241               124.4428               193.6570
 Red. masses --      5.6170                16.3406                 6.2895
 Frc consts  --      0.0470                 0.1491                 0.1390
 IR Inten    --      4.9335                 2.7658                 2.2223

                      4                      5                      6
                      A                      A                      A
 Frequencies --    254.5309               314.5166               394.5259
 Red. masses --      7.4821                14.5559                 4.8027
 Frc consts  --      0.2856                 0.8484                 0.4404
 IR Inten    --      2.1448                 4.5629                 0.3081

                      7                      8                      9
                      A                      A                      A
 Frequencies --    455.5087               490.3849               581.4423
 Red. masses --      4.6415                11.1924                 8.4683
 Frc consts  --      0.5674                 1.5858                 1.6868
 IR Inten    --      1.5654                 1.6392                 1.0423

                     10                     11                     12
                      A                      A                      A
 Frequencies --    611.7405               712.3227               775.4849
 Red. masses --      4.8176                 7.1939                 4.3241
 Frc consts  --      1.0622                 2.1506                 1.5321
 IR Inten    --     13.4875                11.5169                 0.6164

                     13                     14                     15
                      A                      A                      A
 Frequencies --    797.6759               860.2089               959.6631
 Red. masses --      7.1536                 1.3275                 1.4035
 Frc consts  --      2.6818                 0.5787                 0.7615
 IR Inten    --     14.2823                19.1167                 0.5340

                     16                     17                     18
                      A                      A                      A
 Frequencies --    992.8986              1046.4938              1114.1982
 Red. masses --      1.4258                 6.7876                 1.9984
 Frc consts  --      0.8282                 4.3797                 1.4617
 IR Inten    --      0.2686                36.4239                23.0566

                     19                     20                     21
                      A                      A                      A
 Frequencies --   1198.3363              1250.5158              1288.1137
 Red. masses --      2.6897                 2.1748                 9.0657
 Frc consts  --      2.2757                 2.0038                 8.8626
 IR Inten    --      6.2668                 4.8034                 0.9208

                     22                     23                     24
                      A                      A                      A
 Frequencies --   1309.2727              1438.1425              1510.8409
 Red. masses --      1.6796                 1.8205                 2.3140
 Frc consts  --      1.6963                 2.2185                 3.1120
 IR Inten    --     14.0626                32.1484                14.6378

                     25                     26                     27
                      A                      A                      A
 Frequencies --   1585.6807              1625.0796              2362.6992
 Red. masses --      8.1633                 5.9008                12.6783
 Frc consts  --     12.0934                 9.1814                41.6991
 IR Inten    --      2.1915                13.8138                 2.8902

                     28                     29                     30
                      A                      A                      A
 Frequencies --   3188.7301              3195.4501              3226.9058
 Red. masses --      1.0895                 1.0929                 1.0949
 Frc consts  --      6.5270                 6.5748                 6.7172
 IR Inten    --     13.9016                 2.6455                 2.1352

 - Thermochemistry -
 -------------------
 Temperature   298.150 Kelvin.  Pressure   1.00000 Atm.
 Atom     1 has atomic number  7 and mass  14.00307

 Molecular mass:   181.94796 amu.
 Principal axes and moments of inertia in atomic units:
                           1         2         3
     Eigenvalues --  1073.179411818.855472892.03488
           X            0.99966  -0.02602  -0.00000
           Y            0.02602   0.99966   0.00000
           Z            0.00000  -0.00000   1.00000
 This molecule is an asymmetric top.
 Rotational symmetry number  1.
 Warning -- assumption of classical behavior for rotation
           may cause significant error
 Rotational temperatures (Kelvin)      0.08071     0.04762     0.02995
 Rotational constants (GHZ):           1.68168     0.99224     0.62404
 Zero-point vibrational energy     203237.7 (Joules/Mol)
                                   48.57497 (Kcal/Mol)
 Warning -- explicit consideration of  10 degrees of freedom as
           vibrations may cause significant error
 Vibrational temperatures:    171.54   179.05   278.63   366.21   452.52
          (Kelvin)            567.63   655.38   705.55   836.57   880.16
                             1024.87  1115.75  1147.68  1237.65  1380.74
                             1428.56  1505.67  1603.08  1724.14  1799.21
                             1853.31  1883.75  2069.17  2173.76  2281.44
                             2338.13  3399.40  4587.87  4597.54  4642.80

 Zero-point correction=                           0.077409 (Hartree/Particle)
 Thermal correction to Energy=                    0.084753
 Thermal correction to Enthalpy=                  0.085697
 Thermal correction to Gibbs Free Energy=         0.044002
 Sum of electronic and zero-point Energies=          -2911.579066
 Sum of electronic and thermal Energies=             -2911.571723
 Sum of electronic and thermal Enthalpies=           -2911.570778
 Sum of electronic and thermal Free Energies=        -2911.612473

                     E (Thermal)             CV                S
                      KCal/Mol        Cal/Mol-Kelvin    Cal/Mol-Kelvin
 Total                   53.183             26.317             87.753
 Electronic               0.000              0.000              0.000
 Translational            0.889              2.981             41.502
 Rotational               0.889              2.981             30.113
 Vibrational             51.406             20.356             16.138
 Vibration     1          0.609              1.933              3.113
 Vibration     2          0.610              1.929              3.030
 Vibration     3          0.635              1.849              2.193
 Vibration     4          0.665              1.755              1.699
 Vibration     5          0.702              1.646              1.338
 Vibration     6          0.761              1.482              0.983
 Vibration     7          0.814              1.349              0.779
 Vibration     8          0.846              1.271              0.683
 Vibration     9          0.938              1.071              0.483
 Vibration    10          0.971              1.007              0.430

 Optimization completed.
    -- Stationary point found.
 Normal termination of Gaussian 16 at Tue Sep 17 09:54:58 2024.

 ----------------------------------------------------------------------
 #p M062X/def2tzvp geom=check guess=read scf(xqc,tight) integral(grid=u
 ltrafine) scrf(SMD, solvent=1,4-Dioxane) polar prop=efg volume
 ----------------------------------------------------------------------

 ---
 spe
 ---
 Structure from the checkpoint file:  "smiles_00038_conf_0.chk"
 Charge =  0 Multiplicity = 1

 SCF Done:  E(RM062X) =  -2914.10916672     A.U. after   12 cycles

  Exact polarizability:     146.152      -7.537     131.078       0.000      -0.000      59.510
 Approx polarizability:     161.818     -10.818     152.121       0.000      -0.000      74.637

 Normal termination of Gaussian 16 at Tue Sep 17 10:02:20 2024.
 Gaussian 16:  ES64L-G16RevC.02  7-Dec-2021

 ----------------------------------------------------------------------
 #p M062X/def2tzvp geom=check guess=read scf(xqc,tight) integral(grid=u
 ltrafine) scrf(SMD, solvent=1,4-Dioxane) nmr=giao
 ----------------------------------------------------------------------

 ---
 spe
 ---
 Structure from the checkpoint file:  "smiles_00038_conf_0.chk"
 Charge =  0 Multiplicity = 1

                         Standard orientation:
 ---------------------------------------------------------------------
 Center     Atomic      Atomic             Coordinates (Angstroms)
 Number     Number       Type             X           Y           Z
 ---------------------------------------------------------------------
      1          7           0       -0.513725    3.089640   -0.000005
      2          6           0        0.050114    2.073558   -0.000002
      3          6           0        0.784880    0.845447    0.000001
      4          6           0        2.187314    0.860515    0.000003
      5          6           0        2.867837   -0.352641    0.000005
      6          7           0        2.253989   -1.543157    0.000007
      7          6           0        0.920026   -1.562072    0.000006
      8          6           0        0.143424   -0.401726    0.000002
      9         35           0       -1.743223   -0.528677   -0.000003
     10          1           0        2.720048    1.804226    0.000003
     11          1           0        3.954313   -0.370386    0.000007
     12          1           0        0.435029   -2.534023    0.000004
 ---------------------------------------------------------------------

 SCF Done:  E(RM062X) =  -2914.10916672     A.U. after    1 cycles

      1  N    Isotropic =  -102.7463   Anisotropy =   459.0452

      2  C    Isotropic =    53.9127   Anisotropy =   377.2776

      3  C    Isotropic =    38.4564   Anisotropy =   172.3791

      4  C    Isotropic =    35.3692   Anisotropy =   204.2732

      5  C    Isotropic =    11.3600   Anisotropy =   211.8781

      6  N    Isotropic =  -166.1126   Anisotropy =   681.1820

      7  C    Isotropic =     7.3480   Anisotropy =   184.5202

      8  C    Isotropic =    24.5979   Anisotropy =   161.0706

      9  Br   Isotropic =  2091.7509   Anisotropy =  1123.7030

     10  H    Isotropic =    23.4666   Anisotropy =     8.5175

     11  H    Isotropic =    22.2372   Anisotropy =     7.2100

     12  H    Isotropic =    22.0438   Anisotropy =    12.1668

 The electronic state is 1-A.
 Alpha  occ. eigenvalues -- -485.39944 -63.38411 -57.20366 -57.20117 -57.20105
 Alpha  occ. eigenvalues --  -14.78384 -14.78015 -10.63866 -10.62684 -10.61036
 Alpha  occ. eigenvalues --  -10.60448 -10.60444 -10.58953  -9.05057  -6.87500
 Alpha  occ. eigenvalues --   -6.86573  -6.86535  -2.90879  -2.90546  -2.90505
 Alpha  occ. eigenvalues --   -2.89642  -2.89642  -1.08789  -1.03814  -0.96980
 Alpha  occ. eigenvalues --   -0.92159  -0.85616  -0.78279  -0.73811  -0.66382
 Alpha  occ. eigenvalues --   -0.60258  -0.56089  -0.54699  -0.52274  -0.51230
 Alpha  occ. eigenvalues --   -0.46839  -0.46328  -0.45595  -0.42219  -0.41263
 Alpha  occ. eigenvalues --   -0.37896  -0.36286  -0.35480  -0.32673
 Alpha virt. eigenvalues --   -0.05717  -0.01722   0.01827   0.05455   0.07919
 Alpha virt. eigenvalues --    0.09273   0.10218   0.11110   0.12734   0.15046
 Alpha virt. eigenvalues --    0.16153   0.16271   0.19366   0.21250   0.21408

 Mulliken charges:
               1
     1  N   -0.011842
     2  C   -0.202878
     3  C    0.191703
     4  C   -0.153935
     5  C   -0.045143
     6  N   -0.220798
     7  C   -0.061661
     8  C   -0.008410
     9  Br  -0.037061
    10  H    0.189182
    11  H    0.176130
    12  H    0.184711
 Sum of Mulliken charges =  -0.00000

 Dipole moment (field-independent basis, Debye):
    X=              2.4857    Y=             -1.7679    Z=              0.0000  Tot=              3.0503
 Quadrupole moment (field-independent basis, Debye-Ang):
   XX=            -57.1223   YY=            -75.3610   ZZ=            -64.8210
   XY=             10.3058   XZ=              0.0000   YZ=              0.0000

 Normal termination of Gaussian 16 at Tue Sep 17 10:06:20 2024.
