 Gaussian 16, Revision C.02,

 ----------------------------------------------------------------------
 #p B3LYP/gen pseudo=read EmpiricalDispersion=GD3BJ opt freq scf(xqc,ti
 ght) integral(grid=ultrafine)
 ----------------------------------------------------------------------

 ----------------------------------
 opt-freq conformers_unique/conf_aa
 ----------------------------------
 Symbolic Z-matrix:
 Charge =  0 Multiplicity = 1

 SCF Done:  E(RB3LYP) =  -275.112397826     A.U. after   15 cycles
 SCF Done:  E(RB3LYP) =  -275.114150214     A.U. after   13 cycles
 SCF Done:  E(RB3LYP) =  -275.114286952     A.U. after   11 cycles
 SCF Done:  E(RB3LYP) =  -275.114298668     A.U. after   10 cycles
 Optimization completed.
    -- Stationary point found.
 Normal termination of Gaussian 16 at Tue Sep 17 09:56:12 2024.

 ------------------------------------------------------------------
 #P Geom=AllCheck Guess=TCheck SCRF=Check GenChk RB3LYP/ChkBas Freq
 ------------------------------------------------------------------

 Structure from the checkpoint file:  "smiles_00092_conf_0.chk"
 ----------------------------------
 opt-freq conformers_unique/conf_aa
 ----------------------------------
 Charge =  0 Multiplicity = 1

 SCF Done:  E(RB3LYP) =  -275.114298668     A.U. after    1 cycles

                      1                      2                      3
                      A                      A                      A
 Frequencies --    142.5076               225.2632               249.3935
 Red. masses --      4.7312                 6.6942                12.7322
 Frc consts  --      0.0566                 0.2001                 0.4666
 IR Inten    --      0.3257                 0.2696                 6.3919

                      4                      5                      6
                      A                      A                      A
 Frequencies --    411.0733               471.4745               616.2807
 Red. masses --      3.1604                 7.1149                 9.8356
 Frc consts  --      0.3147                 0.9318                 2.2009
 IR Inten    --     12.1950                 4.7849                 2.8289

                      7                      8                      9
                      A                      A                      A
 Frequencies --    741.6248               762.1938               860.5267
 Red. masses --      8.0274                 3.6802                 1.3333
 Frc consts  --      2.6013                 1.2597                 0.5817
 IR Inten    --     38.5985                 3.0652                12.4017

                     10                     11                     12
                      A                      A                      A
 Frequencies --    956.5510               986.1562              1016.4113
 Red. masses --      1.3224                 1.4526                 6.3226
 Frc consts  --      0.7129                 0.8323                 3.8484
 IR Inten    --      0.0268                 0.0018                60.8183

                     13                     14                     15
                      A                      A                      A
 Frequencies --   1069.4662              1131.0915              1198.3099
 Red. masses --      4.6318                 2.2823                 1.8654
 Frc consts  --      3.1213                 1.7204                 1.5782
 IR Inten    --     26.6010               140.8506                 1.0805

                     16                     17                     18
                      A                      A                      A
 Frequencies --   1245.9457              1321.6625              1422.6012
 Red. masses --     11.2408                 1.4316                 1.7412
 Frc consts  --     10.2813                 1.4734                 2.0761
 IR Inten    --      5.5095                 3.3135                43.3406

                     19                     20                     21
                      A                      A                      A
 Frequencies --   1493.4800              1580.8247              1598.0777
 Red. masses --      2.0058                 8.9762                 5.0756
 Frc consts  --      2.6360                13.2164                 7.6373
 IR Inten    --     50.3450                60.8945                13.8522

                     22                     23                     24
                      A                      A                      A
 Frequencies --   3183.9097              3200.2741              3206.1446
 Red. masses --      1.0878                 1.0952                 1.0953
 Frc consts  --      6.4971                 6.6087                 6.6337
 IR Inten    --      2.0354                35.8423                 2.1331

 - Thermochemistry -
 -------------------
 Temperature   298.150 Kelvin.  Pressure   1.00000 Atm.
 Atom     1 has atomic number 53 and mass 126.90040

 Molecular mass:   205.93002 amu.
 Principal axes and moments of inertia in atomic units:
                           1         2         3
     Eigenvalues --   297.743092398.796972696.54006
           X            0.99997  -0.00820  -0.00004
           Y            0.00820   0.99997  -0.00001
           Z            0.00004   0.00001   1.00000
 This molecule is an asymmetric top.
 Rotational symmetry number  1.
 Rotational temperatures (Kelvin)      0.29090     0.03611     0.03212
 Rotational constants (GHZ):           6.06140     0.75235     0.66928
 Zero-point vibrational energy     174004.3 (Joules/Mol)
                                   41.58802 (Kcal/Mol)
 Warning -- explicit consideration of   6 degrees of freedom as
           vibrations may cause significant error
 Vibrational temperatures:    205.04   324.10   358.82   591.44   678.35
          (Kelvin)            886.69  1067.03  1096.63  1238.11  1376.26
                             1418.86  1462.39  1538.72  1627.39  1724.10
                             1792.64  1901.58  2046.81  2148.78  2274.45
                             2299.28  4580.94  4604.48  4612.93

 Zero-point correction=                           0.066275 (Hartree/Particle)
 Thermal correction to Energy=                    0.071946
 Thermal correction to Enthalpy=                  0.072890
 Thermal correction to Gibbs Free Energy=         0.034571
 Sum of electronic and zero-point Energies=           -275.048024
 Sum of electronic and thermal Energies=              -275.042353
 Sum of electronic and thermal Enthalpies=            -275.041409
 Sum of electronic and thermal Free Energies=         -275.079728

                     E (Thermal)             CV                S
                      KCal/Mol        Cal/Mol-Kelvin    Cal/Mol-Kelvin
 Total                   45.147             19.764             80.649
 Electronic               0.000              0.000              0.000
 Translational            0.889              2.981             41.871
 Rotational               0.889              2.981             29.045
 Vibrational             43.369             13.803              9.733
 Vibration     1          0.616              1.911              2.770
 Vibration     2          0.650              1.803              1.916
 Vibration     3          0.662              1.764              1.735
 Vibration     4          0.775              1.446              0.923
 Vibration     5          0.828              1.313              0.733
 Vibration     6          0.976              0.997              0.422

 Optimization completed.
    -- Stationary point found.
 Normal termination of Gaussian 16 at Tue Sep 17 09:56:28 2024.

 ----------------------------------------------------------------------
 #p M062X/def2tzvp geom=check guess=read scf(xqc,tight) integral(grid=u
 ltrafine) scrf(SMD, solvent=1,4-Dioxane) polar prop=efg volume
 ----------------------------------------------------------------------

 ---
 spe
 ---
 Structure from the checkpoint file:  "smiles_00092_conf_0.chk"
 Charge =  0 Multiplicity = 1

 SCF Done:  E(RM062X) =  -561.334794232     A.U. after   21 cycles

  Exact polarizability:     158.564      -6.001      94.523       0.003       0.000      58.262
 Approx polarizability:     165.509      -5.740     118.494       0.003       0.000      74.205

 1\1\GINC-HPC-53-13\SP\RM062X\def2TZVP\C4H3I1N2\MANTIND\17-Sep-2024\0\\
 #p M062X/def2tzvp geom=check guess=read scf(xqc,tight) integral(grid=u
 ltrafine) scrf(SMD, solvent=1,4-Dioxane) polar prop=efg volume\\spe\\0
 ,1\I,0,1.370379143,0.058482372,0.0000922743\C,0,-0.7810211009,-0.01578
 65277,-0.0000235817\C,0,-1.4989156116,1.1881134947,-0.000041362\N,0,-2
 .8317772951,1.1801255494,-0.0000638159\C,0,-3.4330561046,-0.0167696975
 ,-0.0000645802\C,0,-2.7021097043,-1.203120391,-0.0000368088\N,0,-1.361
 0873546,-1.1972067157,-0.0000146887\H,0,-0.9931037876,2.1488671132,-0.

 Normal termination of Gaussian 16 at Tue Sep 17 10:02:42 2024.
 Gaussian 16:  ES64L-G16RevC.02  7-Dec-2021

 ----------------------------------------------------------------------
 #p M062X/def2tzvp geom=check guess=read scf(xqc,tight) integral(grid=u
 ltrafine) scrf(SMD, solvent=1,4-Dioxane) nmr=giao
 ----------------------------------------------------------------------

 ---
 spe
 ---
 Structure from the checkpoint file:  "smiles_00092_conf_0.chk"
 Charge =  0 Multiplicity = 1

                         Standard orientation:
 ---------------------------------------------------------------------
 Center     Atomic      Atomic             Coordinates (Angstroms)
 Number     Number       Type             X           Y           Z
 ---------------------------------------------------------------------
      1         53           0       -1.539977   -0.007038   -0.000059
      2          6           0        0.612593   -0.029031    0.000057
      3          6           0        1.301035    1.191950    0.000075
      4          7           0        2.633697    1.216338    0.000098
      5          6           0        3.263869    0.034400    0.000098
      6          6           0        2.561953   -1.169354    0.000071
      7          7           0        1.221183   -1.196014    0.000048
      8          1           0        0.772037    2.140135    0.000050
      9          1           0        4.350656    0.050301    0.000131
     10          1           0        3.075219   -2.127492    0.000091
 ---------------------------------------------------------------------

 SCF Done:  E(RM062X) =  -561.334794232     A.U. after    1 cycles

      1  I    Isotropic =   430.9730   Anisotropy =    76.2971

      2  C    Isotropic =    -1.1331   Anisotropy =   109.1405

      3  C    Isotropic =     8.1554   Anisotropy =   170.7817

      4  N    Isotropic =  -176.3088   Anisotropy =   688.3897

      5  C    Isotropic =    17.6922   Anisotropy =   202.0681

      6  C    Isotropic =    15.4141   Anisotropy =   186.9842

      7  N    Isotropic =  -177.3677   Anisotropy =   640.5484

      8  H    Isotropic =    22.2863   Anisotropy =    13.1923

      9  H    Isotropic =    22.4890   Anisotropy =     6.4898

     10  H    Isotropic =    22.5791   Anisotropy =     6.9470

 The electronic state is 1-A.
 Alpha  occ. eigenvalues --  -14.78926 -14.78592 -10.64243 -10.60568 -10.60285
 Alpha  occ. eigenvalues --  -10.59818  -7.11069  -5.10421  -5.09376  -5.09348
 Alpha  occ. eigenvalues --   -2.07244  -2.06823  -2.06800  -2.05928  -2.05928
 Alpha  occ. eigenvalues --   -1.11555  -1.03603  -0.89724  -0.80164  -0.76522
 Alpha  occ. eigenvalues --   -0.73014  -0.61385  -0.60642  -0.55358  -0.52374
 Alpha  occ. eigenvalues --   -0.49830  -0.43551  -0.41484  -0.40696  -0.36501
 Alpha  occ. eigenvalues --   -0.32883  -0.32830  -0.31038
 Alpha virt. eigenvalues --   -0.03390  -0.01117  -0.01043   0.09692   0.10822
 Alpha virt. eigenvalues --    0.12209   0.12722   0.14780   0.15103   0.18603
 Alpha virt. eigenvalues --    0.19237   0.19904   0.19976   0.21040   0.22964

 Mulliken charges:
               1
     1  I   -0.079982
     2  C    0.146296
     3  C   -0.085190
     4  N   -0.211707
     5  C   -0.046246
     6  C   -0.042769
     7  N   -0.220407
     8  H    0.190278
     9  H    0.174170
    10  H    0.175557
 Sum of Mulliken charges =  -0.00000

 Dipole moment (field-independent basis, Debye):
    X=              1.8067    Y=             -0.2180    Z=              0.0001  Tot=              1.8198
 Quadrupole moment (field-independent basis, Debye-Ang):
   XX=            -51.6472   YY=            -62.4700   ZZ=            -62.5076
   XY=             -6.8348   XZ=              0.0004   YZ=             -0.0002

 1\1\GINC-HPC-53-13\SP\RM062X\def2TZVP\C4H3I1N2\MANTIND\17-Sep-2024\0\\
 #p M062X/def2tzvp geom=check guess=read scf(xqc,tight) integral(grid=u
 ltrafine) scrf(SMD, solvent=1,4-Dioxane) nmr=giao\\spe\\0,1\I,0,1.3703
 79143,0.058482372,0.0000922743\C,0,-0.7810211009,-0.0157865277,-0.0000
 235817\C,0,-1.4989156116,1.1881134947,-0.000041362\N,0,-2.8317772951,1
 .1801255494,-0.0000638159\C,0,-3.4330561046,-0.0167696975,-0.000064580
 2\C,0,-2.7021097043,-1.203120391,-0.0000368088\N,0,-1.3610873546,-1.19
 72067157,-0.0000146887\H,0,-0.9931037876,2.1488671132,-0.000015764\H,0

 Normal termination of Gaussian 16 at Tue Sep 17 10:04:58 2024.
