 Gaussian 16, Revision C.02,

 ----------------------------------------------------------------------
 #p B3LYP/6-31G(d,p) EmpiricalDispersion=GD3BJ opt freq scf(xqc,tight)
 integral(grid=ultrafine)
 ----------------------------------------------------------------------

 ----------------------------------
 opt-freq conformers_unique/conf_ae
 ----------------------------------
 Symbolic Z-matrix:
 Charge =  0 Multiplicity = 1

 SCF Done:  E(RB3LYP) =  -3109.91858485     A.U. after   15 cycles
 SCF Done:  E(RB3LYP) =  -3109.92052372     A.U. after   12 cycles
 SCF Done:  E(RB3LYP) =  -3109.92067237     A.U. after   10 cycles
 SCF Done:  E(RB3LYP) =  -3109.92066598     A.U. after   11 cycles
 SCF Done:  E(RB3LYP) =  -3109.92068612     A.U. after   12 cycles
 SCF Done:  E(RB3LYP) =  -3109.92073641     A.U. after   10 cycles
 SCF Done:  E(RB3LYP) =  -3109.92079366     A.U. after   11 cycles
 SCF Done:  E(RB3LYP) =  -3109.92107044     A.U. after   15 cycles
 SCF Done:  E(RB3LYP) =  -3109.92128566     A.U. after   12 cycles
 SCF Done:  E(RB3LYP) =  -3109.92176578     A.U. after   13 cycles
 SCF Done:  E(RB3LYP) =  -3109.92285051     A.U. after   10 cycles
 SCF Done:  E(RB3LYP) =  -3109.92285314     A.U. after   10 cycles
 SCF Done:  E(RB3LYP) =  -3109.92285485     A.U. after   10 cycles
 SCF Done:  E(RB3LYP) =  -3109.92285643     A.U. after   10 cycles
 SCF Done:  E(RB3LYP) =  -3109.92285813     A.U. after   10 cycles
 SCF Done:  E(RB3LYP) =  -3109.92285827     A.U. after    9 cycles
 SCF Done:  E(RB3LYP) =  -3109.92285825     A.U. after    8 cycles
 Optimization completed.
    -- Stationary point found.
 Normal termination of Gaussian 16 at Tue Sep 17 10:00:21 2024.

 ----------------------------------------------------------------------
 #P Geom=AllCheck Guess=TCheck SCRF=Check GenChk RB3LYP/6-31G(d,p) Freq
 ----------------------------------------------------------------------

 Structure from the checkpoint file:  "smiles_00069_conf_4.chk"
 ----------------------------------
 opt-freq conformers_unique/conf_ae
 ----------------------------------
 Charge =  0 Multiplicity = 1

 SCF Done:  E(RB3LYP) =  -3109.92285825     A.U. after    1 cycles

                      1                      2                      3
                      A                      A                      A
 Frequencies --     13.5229                30.0852                34.3549
 Red. masses --      3.8582                 4.4774                 4.3444
 Frc consts  --      0.0004                 0.0024                 0.0030
 IR Inten    --      0.0856                 0.3606                 0.7323

                      4                      5                      6
                      A                      A                      A
 Frequencies --     77.0846                98.0662               153.5996
 Red. masses --      5.3418                 3.7694                 6.9385
 Frc consts  --      0.0187                 0.0214                 0.0964
 IR Inten    --      1.3069                 0.5208                 1.2166

                      7                      8                      9
                      A                      A                      A
 Frequencies --    188.5633               223.1043               284.3350
 Red. masses --      3.6409                 1.4025                 8.3572
 Frc consts  --      0.0763                 0.0411                 0.3981
 IR Inten    --      1.0078                 1.2375                 2.0072

                     10                     11                     12
                      A                      A                      A
 Frequencies --    298.4678               331.7471               345.1565
 Red. masses --      2.7059                 5.8363                 3.3400
 Frc consts  --      0.1420                 0.3784                 0.2344
 IR Inten    --      3.1438                 2.9251                 7.3030

                     13                     14                     15
                      A                      A                      A
 Frequencies --    401.8491               420.9795               458.2161
 Red. masses --      2.4098                 2.9592                 2.8857
 Frc consts  --      0.2293                 0.3090                 0.3570
 IR Inten    --      3.0212                 0.0731                10.7814

                     16                     17                     18
                      A                      A                      A
 Frequencies --    509.4505               584.7940               648.3185
 Red. masses --      3.1481                 5.8148                 6.3443
 Frc consts  --      0.4814                 1.1716                 1.5711
 IR Inten    --      9.6595                 4.1406                 1.1225

                     19                     20                     21
                      A                      A                      A
 Frequencies --    658.4005               716.4589               767.3418
 Red. masses --      4.0606                 4.3758                 3.2685
 Frc consts  --      1.0371                 1.3234                 1.1339
 IR Inten    --     10.2765                 4.5274                20.4246

                     22                     23                     24
                      A                      A                      A
 Frequencies --    798.7996               826.1293               845.0706
 Red. masses --      1.4625                 2.0374                 1.2495
 Frc consts  --      0.5498                 0.8192                 0.5258
 IR Inten    --      7.0003                20.6628                 0.1669

                     25                     26                     27
                      A                      A                      A
 Frequencies --    855.1182               874.6517               936.2121
 Red. masses --      2.1936                 2.9905                 2.6431
 Frc consts  --      0.9451                 1.3479                 1.3649
 IR Inten    --     10.2653                 4.6543                 4.0217

                     28                     29                     30
                      A                      A                      A
 Frequencies --    965.6258               974.3341               976.8930
 Red. masses --      1.7754                 1.3548                 1.5220
 Frc consts  --      0.9753                 0.7578                 0.8558
 IR Inten    --      2.0350                 0.1265                 0.0135

                     31                     32                     33
                      A                      A                      A
 Frequencies --   1031.0556              1055.2321              1096.0664
 Red. masses --      4.8511                 3.6915                 2.6209
 Frc consts  --      3.0385                 2.4218                 1.8552
 IR Inten    --     39.9429                40.4432                28.8609

                     34                     35                     36
                      A                      A                      A
 Frequencies --   1125.5932              1130.7629              1159.1062
 Red. masses --      1.8954                 1.5275                 1.3507
 Frc consts  --      1.4149                 1.1507                 1.0692
 IR Inten    --     18.9193                43.2061                99.1521

                     37                     38                     39
                      A                      A                      A
 Frequencies --   1202.6752              1210.5932              1220.8531
 Red. masses --      1.7242                 1.1296                 2.6638
 Frc consts  --      1.4694                 0.9754                 2.3392
 IR Inten    --      5.9346                 0.2361                15.8209

                     40                     41                     42
                      A                      A                      A
 Frequencies --   1283.7054              1320.7144              1333.7409
 Red. masses --      2.4920                 1.7070                 1.4388
 Frc consts  --      2.4195                 1.7543                 1.5079
 IR Inten    --    224.2124                74.2643                 8.6053

                     43                     44                     45
                      A                      A                      A
 Frequencies --   1334.0040              1355.2979              1407.5048
 Red. masses --      1.2606                 2.9954                 1.2872
 Frc consts  --      1.3217                 3.2417                 1.5025
 IR Inten    --     11.9897                 3.5083                 9.1105

                     46                     47                     48
                      A                      A                      A
 Frequencies --   1432.6286              1448.3393              1489.8421
 Red. masses --      1.3302                 2.6898                 1.1050
 Frc consts  --      1.6085                 3.3244                 1.4451
 IR Inten    --      9.3047                 7.6593                 8.5598

                     49                     50                     51
                      A                      A                      A
 Frequencies --   1499.6254              1504.7755              1521.5796
 Red. masses --      1.0459                 1.0848                 1.0588
 Frc consts  --      1.3858                 1.4473                 1.4443
 IR Inten    --      8.8766                 7.7458                 9.2137

                     52                     53                     54
                      A                      A                      A
 Frequencies --   1532.9640              1630.2130              1650.7830
 Red. masses --      2.3256                 6.8929                 5.7673
 Frc consts  --      3.2199                10.7929                 9.2598
 IR Inten    --     57.9750                 0.3034                 6.2412

                     55                     56                     57
                      A                      A                      A
 Frequencies --   1827.8318              3057.5020              3083.3403
 Red. masses --     10.9418                 1.0359                 1.0603
 Frc consts  --     21.5384                 5.7054                 5.9393
 IR Inten    --    219.0753                12.0228                12.7197

                     58                     59                     60
                      A                      A                      A
 Frequencies --   3087.5215              3128.6116              3136.8851
 Red. masses --      1.0586                 1.1029                 1.1044
 Frc consts  --      5.9456                 6.3602                 6.4030
 IR Inten    --     32.5200                21.6585                10.4702

                     61                     62                     63
                      A                      A                      A
 Frequencies --   3147.9180              3156.1817              3192.9749
 Red. masses --      1.1055                 1.1072                 1.0895
 Frc consts  --      6.4545                 6.4982                 6.5447
 IR Inten    --      4.5684                23.5395                 6.4611

                     64                     65                     66
                      A                      A                      A
 Frequencies --   3198.4287              3221.8821              3223.2185
 Red. masses --      1.0890                 1.0939                 1.0945
 Frc consts  --      6.5640                 6.6902                 6.6998
 IR Inten    --      5.2696                 4.6407                 0.1996

 - Thermochemistry -
 -------------------
 Temperature   298.150 Kelvin.  Pressure   1.00000 Atm.
 Atom     1 has atomic number  6 and mass  12.00000

 Molecular mass:   241.99424 amu.
 Principal axes and moments of inertia in atomic units:
                           1         2         3
     Eigenvalues --  1380.445597823.783748393.04604
           X            0.99971  -0.02372  -0.00291
           Y            0.02373   0.99972   0.00235
           Z            0.00285  -0.00242   0.99999
 This molecule is an asymmetric top.
 Rotational symmetry number  1.
 Warning -- assumption of classical behavior for rotation
           may cause significant error
 Rotational temperatures (Kelvin)      0.06274     0.01107     0.01032
 Rotational constants (GHZ):           1.30736     0.23067     0.21503
 Zero-point vibrational energy     500856.6 (Joules/Mol)
                                  119.70760 (Kcal/Mol)
 Warning -- explicit consideration of  17 degrees of freedom as
           vibrations may cause significant error
 Vibrational temperatures:     19.46    43.29    49.43   110.91   141.10
          (Kelvin)            221.00   271.30   321.00   409.09   429.43
                              477.31   496.60   578.17   605.70   659.27
                              732.99   841.39   932.79   947.29  1030.82
                             1104.03  1149.29  1188.62  1215.87  1230.32
                             1258.43  1347.00  1389.32  1401.85  1405.53
                             1483.46  1518.24  1577.00  1619.48  1626.92
                             1667.70  1730.38  1741.77  1756.54  1846.97
                             1900.21  1918.96  1919.33  1949.97  2025.09
                             2061.23  2083.84  2143.55  2157.63  2165.04
                             2189.21  2205.59  2345.51  2375.11  2629.84
                             4399.06  4436.24  4442.25  4501.37  4513.28
                             4529.15  4541.04  4593.98  4601.83  4635.57
                             4637.49

 Zero-point correction=                           0.190766 (Hartree/Particle)
 Thermal correction to Energy=                    0.203638
 Thermal correction to Enthalpy=                  0.204583
 Thermal correction to Gibbs Free Energy=         0.147233
 Sum of electronic and zero-point Energies=          -3109.732092
 Sum of electronic and thermal Energies=             -3109.719220
 Sum of electronic and thermal Enthalpies=           -3109.718276
 Sum of electronic and thermal Free Energies=        -3109.775625

                     E (Thermal)             CV                S
                      KCal/Mol        Cal/Mol-Kelvin    Cal/Mol-Kelvin
 Total                  127.785             46.193            120.702
 Electronic               0.000              0.000              0.000
 Translational            0.889              2.981             42.352
 Rotational               0.889              2.981             32.872
 Vibrational            126.008             40.231             45.478
 Vibration     1          0.593              1.986              7.411
 Vibration     2          0.594              1.984              5.824
 Vibration     3          0.594              1.983              5.561
 Vibration     4          0.599              1.964              3.964
 Vibration     5          0.604              1.951              3.492
 Vibration     6          0.619              1.899              2.627
 Vibration     7          0.633              1.856              2.242
 Vibration     8          0.649              1.806              1.934
 Vibration     9          0.683              1.703              1.507
 Vibration    10          0.692              1.677              1.425
 Vibration    11          0.714              1.612              1.252
 Vibration    12          0.724              1.585              1.188
 Vibration    13          0.767              1.466              0.956
 Vibration    14          0.783              1.425              0.889
 Vibration    15          0.816              1.343              0.771
 Vibration    16          0.865              1.229              0.635
 Vibration    17          0.942              1.064              0.477

                           ! Non-Optimized Parameters !
 Normal termination of Gaussian 16 at Tue Sep 17 10:02:15 2024.

 ----------------------------------------------------------------------
 #p M062X/def2tzvp geom=check guess=read scf(xqc,tight) integral(grid=u
 ltrafine) scrf(SMD, solvent=1,4-Dioxane) polar prop=efg volume
 ----------------------------------------------------------------------

 ---
 spe
 ---
 Structure from the checkpoint file:  "smiles_00069_conf_4.chk"
 Charge =  0 Multiplicity = 1

 SCF Done:  E(RM062X) =  -3112.33732424     A.U. after   12 cycles

  Exact polarizability:     203.542      16.721     142.299       9.560     -16.618     134.407
 Approx polarizability:     199.163      19.560     158.596       9.984     -24.002     166.351

 Normal termination of Gaussian 16 at Tue Sep 17 10:55:03 2024.
 Gaussian 16:  ES64L-G16RevC.02  7-Dec-2021

 ----------------------------------------------------------------------
 #p M062X/def2tzvp geom=check guess=read scf(xqc,tight) integral(grid=u
 ltrafine) scrf(SMD, solvent=1,4-Dioxane) nmr=giao
 ----------------------------------------------------------------------

 ---
 spe
 ---
 Structure from the checkpoint file:  "smiles_00069_conf_4.chk"
 Charge =  0 Multiplicity = 1

                         Standard orientation:
 ---------------------------------------------------------------------
 Center     Atomic      Atomic             Coordinates (Angstroms)
 Number     Number       Type             X           Y           Z
 ---------------------------------------------------------------------
      1          6           0       -3.149536    2.312261    0.742404
      2          6           0       -4.064564    1.433005   -0.092988
      3          8           0       -3.317428    0.352234   -0.703498
      4          6           0       -3.073673   -0.720404    0.080424
      5          8           0       -3.514945   -0.868576    1.198278
      6          6           0       -2.120927   -1.679378   -0.613659
      7          6           0       -0.699481   -1.178893   -0.450111
      8          6           0        0.103127   -1.649330    0.593410
      9          6           0        1.396119   -1.162117    0.779825
     10          6           0        1.882281   -0.188961   -0.088482
     11         35           0        3.653920    0.485115    0.153734
     12          6           0        1.100920    0.303052   -1.131743
     13          6           0       -0.188630   -0.194403   -1.303599
     14          1           0       -3.707423    3.169602    1.132004
     15          1           0       -2.316383    2.685003    0.140102
     16          1           0       -2.749016    1.749199    1.588369
     17          1           0       -4.491984    1.978069   -0.936995
     18          1           0       -4.868454    1.007019    0.511312
     19          1           0       -2.242571   -2.659792   -0.150734
     20          1           0       -2.383805   -1.745950   -1.672642
     21          1           0       -0.285902   -2.402861    1.271553
     22          1           0        2.016873   -1.531684    1.587376
     23          1           0        1.496315    1.061526   -1.797017
     24          1           0       -0.809681    0.192610   -2.105135
 ---------------------------------------------------------------------

 SCF Done:  E(RM062X) =  -3112.33732424     A.U. after    1 cycles

      1  C    Isotropic =   172.0286   Anisotropy =    22.9400

      2  C    Isotropic =   120.9948   Anisotropy =    71.8039

      3  O    Isotropic =    96.8416   Anisotropy =   173.1551

      4  C    Isotropic =    -6.9468   Anisotropy =   117.9907

      5  O    Isotropic =  -148.3046   Anisotropy =   675.0923

      6  C    Isotropic =   138.0816   Anisotropy =    20.7616

      7  C    Isotropic =    26.1868   Anisotropy =   221.9376

      8  C    Isotropic =    31.8947   Anisotropy =   194.4945

      9  C    Isotropic =    30.9769   Anisotropy =   185.2074

     10  C    Isotropic =    25.5338   Anisotropy =   141.8121

     11  Br   Isotropic =  2089.0505   Anisotropy =  1291.4667

     12  C    Isotropic =    31.3099   Anisotropy =   184.8189

     13  C    Isotropic =    31.2816   Anisotropy =   201.5397

     14  H    Isotropic =    31.1778   Anisotropy =    11.2669

     15  H    Isotropic =    31.2140   Anisotropy =     7.1798

     16  H    Isotropic =    30.9162   Anisotropy =     4.9184

     17  H    Isotropic =    28.1633   Anisotropy =     7.8013

     18  H    Isotropic =    27.1532   Anisotropy =     6.4525

     19  H    Isotropic =    28.4007   Anisotropy =     5.3840

     20  H    Isotropic =    28.1314   Anisotropy =     4.4488

     21  H    Isotropic =    23.6738   Anisotropy =     7.9807

     22  H    Isotropic =    23.6761   Anisotropy =    10.1968

     23  H    Isotropic =    23.6383   Anisotropy =    10.4383

     24  H    Isotropic =    23.4999   Anisotropy =     8.2024

 The electronic state is 1-A.
 Alpha  occ. eigenvalues -- -485.37559 -63.36040 -57.17984 -57.17749 -57.17743
 Alpha  occ. eigenvalues --  -19.67195 -19.62014 -10.67733 -10.60454 -10.59234
 Alpha  occ. eigenvalues --  -10.56704 -10.55826 -10.55797 -10.55790 -10.55493
 Alpha  occ. eigenvalues --  -10.55472 -10.52716  -9.02685  -6.85088  -6.84219
 Alpha  occ. eigenvalues --   -6.84200  -2.88465  -2.88150  -2.88127  -2.87316
 Alpha  occ. eigenvalues --   -2.87316  -1.23148  -1.14190  -0.98565  -0.91944
 Alpha  occ. eigenvalues --   -0.87835  -0.85760  -0.84949  -0.79139  -0.73595
 Alpha  occ. eigenvalues --   -0.70763  -0.67359  -0.63997  -0.59707  -0.58170
 Alpha  occ. eigenvalues --   -0.57137  -0.55103  -0.54341  -0.53251  -0.50852
 Alpha  occ. eigenvalues --   -0.50101  -0.48313  -0.47029  -0.46654  -0.45807
 Alpha  occ. eigenvalues --   -0.44612  -0.43747  -0.41492  -0.40830  -0.40531
 Alpha  occ. eigenvalues --   -0.38342  -0.37457  -0.35648  -0.35205  -0.32212
 Alpha  occ. eigenvalues --   -0.29481
 Alpha virt. eigenvalues --    0.00095   0.00663   0.03522   0.05300   0.07259
 Alpha virt. eigenvalues --    0.09380   0.10309   0.10482   0.11367   0.12058
 Alpha virt. eigenvalues --    0.13505   0.14019   0.14468   0.15273   0.15683

 Mulliken charges:
               1
     1  C   -0.442904
     2  C   -0.109128
     3  O   -0.274030
     4  C    0.378490
     5  O   -0.358211
     6  C   -0.410360
     7  C    0.121255
     8  C   -0.188678
     9  C   -0.151501
    10  C    0.029762
    11  Br  -0.115758
    12  C   -0.144733
    13  C   -0.211169
    14  H    0.153547
    15  H    0.150808
    16  H    0.168308
    17  H    0.148775
    18  H    0.158281
    19  H    0.185732
    20  H    0.198908
    21  H    0.173776
    22  H    0.181742
    23  H    0.181449
    24  H    0.175640
 Sum of Mulliken charges =  -0.00000

 Dipole moment (field-independent basis, Debye):
    X=             -1.5353    Y=              0.4968    Z=             -1.7816  Tot=              2.4037
 Quadrupole moment (field-independent basis, Debye-Ang):
   XX=            -94.0591   YY=            -83.1449   ZZ=            -89.6335
   XY=             -6.2090   XZ=              7.3931   YZ=             -0.9136

 Normal termination of Gaussian 16 at Tue Sep 17 11:15:04 2024.
