 Gaussian 16, Revision C.02,

 ----------------------------------------------------------------------
 #p B3LYP/6-31G(d,p) EmpiricalDispersion=GD3BJ opt freq scf(xqc,tight)
 integral(grid=ultrafine)
 ----------------------------------------------------------------------

 ----------------------------------
 opt-freq conformers_unique/conf_aj
 ----------------------------------
 Symbolic Z-matrix:
 Charge =  0 Multiplicity = 1

 SCF Done:  E(RB3LYP) =  -3109.92021443     A.U. after   14 cycles
 SCF Done:  E(RB3LYP) =  -3109.92179993     A.U. after   11 cycles
 SCF Done:  E(RB3LYP) =  -3109.92114063     A.U. after   13 cycles
 SCF Done:  E(RB3LYP) =  -3109.92205575     A.U. after   11 cycles
 SCF Done:  E(RB3LYP) =  -3109.92208132     A.U. after   11 cycles
 SCF Done:  E(RB3LYP) =  -3109.92211276     A.U. after   11 cycles
 SCF Done:  E(RB3LYP) =  -3109.92211894     A.U. after   10 cycles
 SCF Done:  E(RB3LYP) =  -3109.92212946     A.U. after   10 cycles
 SCF Done:  E(RB3LYP) =  -3109.92214433     A.U. after   11 cycles
 SCF Done:  E(RB3LYP) =  -3109.92215114     A.U. after   10 cycles
 SCF Done:  E(RB3LYP) =  -3109.92215883     A.U. after   11 cycles
 SCF Done:  E(RB3LYP) =  -3109.92216062     A.U. after   10 cycles
 SCF Done:  E(RB3LYP) =  -3109.92216079     A.U. after    9 cycles
 SCF Done:  E(RB3LYP) =  -3109.92216081     A.U. after    8 cycles
 Optimization completed.
    -- Stationary point found.
 Normal termination of Gaussian 16 at Tue Sep 17 09:57:59 2024.

 ----------------------------------------------------------------------
 #P Geom=AllCheck Guess=TCheck SCRF=Check GenChk RB3LYP/6-31G(d,p) Freq
 ----------------------------------------------------------------------

 Structure from the checkpoint file:  "smiles_00069_conf_9.chk"
 ----------------------------------
 opt-freq conformers_unique/conf_aj
 ----------------------------------
 Charge =  0 Multiplicity = 1

 SCF Done:  E(RB3LYP) =  -3109.92216081     A.U. after    1 cycles

                      1                      2                      3
                      A                      A                      A
 Frequencies --     11.9608                28.2841                54.9805
 Red. masses --      4.6365                 3.7629                 2.7770
 Frc consts  --      0.0004                 0.0018                 0.0049
 IR Inten    --      0.8616                 0.1441                 0.0220

                      4                      5                      6
                      A                      A                      A
 Frequencies --     63.8877               107.7276               158.0033
 Red. masses --      7.6234                 4.0451                 3.1922
 Frc consts  --      0.0183                 0.0277                 0.0470
 IR Inten    --      1.9726                 0.0815                 2.5671

                      7                      8                      9
                      A                      A                      A
 Frequencies --    177.4661               218.4187               265.6783
 Red. masses --      4.2617                 4.2314                 1.3633
 Frc consts  --      0.0791                 0.1189                 0.0567
 IR Inten    --      2.1520                 2.4825                 0.0877

                     10                     11                     12
                      A                      A                      A
 Frequencies --    281.7202               323.6911               350.2390
 Red. masses --      6.5839                 5.4556                 5.3643
 Frc consts  --      0.3079                 0.3368                 0.3877
 IR Inten    --      4.0922                 4.4730                 6.3351

                     13                     14                     15
                      A                      A                      A
 Frequencies --    376.7576               421.9718               428.8309
 Red. masses --      3.1678                 2.9494                 2.3514
 Frc consts  --      0.2649                 0.3094                 0.2548
 IR Inten    --      8.5115                 0.0890                 0.8378

                     16                     17                     18
                      A                      A                      A
 Frequencies --    504.9836               579.4301               644.1975
 Red. masses --      3.0682                 5.8933                 6.3000
 Frc consts  --      0.4610                 1.1658                 1.5404
 IR Inten    --      8.5505                 7.9559                 2.4957

                     19                     20                     21
                      A                      A                      A
 Frequencies --    660.9198               719.3866               777.3508
 Red. masses --      4.7586                 4.1196                 4.5434
 Frc consts  --      1.2247                 1.2561                 1.6176
 IR Inten    --      7.6713                 2.8324                25.9919

                     22                     23                     24
                      A                      A                      A
 Frequencies --    813.7077               826.0349               851.0296
 Red. masses --      1.1243                 1.8352                 1.2854
 Frc consts  --      0.4386                 0.7378                 0.5485
 IR Inten    --      0.0914                21.6048                 1.0692

                     25                     26                     27
                      A                      A                      A
 Frequencies --    861.8562               880.2538               961.2902
 Red. masses --      2.5865                 2.7548                 3.5940
 Frc consts  --      1.1320                 1.2576                 1.9568
 IR Inten    --      6.6149                 9.9101                 2.4331

                     28                     29                     30
                      A                      A                      A
 Frequencies --    965.1831               976.3563               988.8284
 Red. masses --      1.6855                 1.5485                 1.4226
 Frc consts  --      0.9251                 0.8697                 0.8195
 IR Inten    --      2.8238                 3.9781                 0.1616

                     31                     32                     33
                      A                      A                      A
 Frequencies --   1030.9410              1064.7959              1096.3067
 Red. masses --      4.9060                 3.2943                 2.5990
 Frc consts  --      3.0722                 2.2007                 1.8404
 IR Inten    --     44.9956                62.2085                28.2641

                     34                     35                     36
                      A                      A                      A
 Frequencies --   1133.4890              1142.9221              1165.0073
 Red. masses --      1.4216                 2.1194                 1.3563
 Frc consts  --      1.0761                 1.6312                 1.0846
 IR Inten    --     12.6043                15.4323               135.1637

                     37                     38                     39
                      A                      A                      A
 Frequencies --   1186.0399              1211.5650              1221.2077
 Red. masses --      1.5508                 1.1314                 2.7033
 Frc consts  --      1.2853                 0.9785                 2.3753
 IR Inten    --      4.6672                 1.4988                 6.6303

                     40                     41                     42
                      A                      A                      A
 Frequencies --   1292.8946              1299.6882              1322.8916
 Red. masses --      1.8540                 1.1708                 2.2963
 Frc consts  --      1.8259                 1.1652                 2.3677
 IR Inten    --    186.3768                35.7305               150.5357

                     43                     44                     45
                      A                      A                      A
 Frequencies --   1334.8005              1363.4565              1406.2568
 Red. masses --      1.7502                 2.3580                 1.3772
 Frc consts  --      1.8373                 2.5827                 1.6047
 IR Inten    --      1.5885                62.1713                13.4791

                     46                     47                     48
                      A                      A                      A
 Frequencies --   1439.4073              1450.5925              1487.9125
 Red. masses --      1.4443                 2.5425                 1.1066
 Frc consts  --      1.7631                 3.1521                 1.4435
 IR Inten    --     10.9009                12.2089                 8.6581

                     49                     50                     51
                      A                      A                      A
 Frequencies --   1500.8057              1512.1294              1531.7827
 Red. masses --      1.0393                 1.0506                 1.1172
 Frc consts  --      1.3793                 1.4154                 1.5444
 IR Inten    --      5.0089                 1.8714                 7.4778

                     52                     53                     54
                      A                      A                      A
 Frequencies --   1533.0885              1629.9698              1651.2720
 Red. masses --      2.1861                 6.8919                 5.7130
 Frc consts  --      3.0273                10.7883                 9.1781
 IR Inten    --     57.5582                 0.5363                 5.1275

                     55                     56                     57
                      A                      A                      A
 Frequencies --   1817.4062              3057.5240              3068.8816
 Red. masses --     11.3819                 1.0354                 1.0583
 Frc consts  --     22.1498                 5.7029                 5.8723
 IR Inten    --    197.1155                15.4946                16.1400

                     58                     59                     60
                      A                      A                      A
 Frequencies --   3077.5907              3109.7830              3133.1415
 Red. masses --      1.0603                 1.1079                 1.1020
 Frc consts  --      5.9171                 6.3126                 6.3736
 IR Inten    --     11.0472                 6.9835                22.4215

                     61                     62                     63
                      A                      A                      A
 Frequencies --   3139.4171              3141.0827              3188.8393
 Red. masses --      1.1049                 1.1051                 1.0895
 Frc consts  --      6.4162                 6.4240                 6.5275
 IR Inten    --      6.3079                35.6450                 9.7644

                     64                     65                     66
                      A                      A                      A
 Frequencies --   3202.3528              3221.6526              3223.2911
 Red. masses --      1.0892                 1.0937                 1.0948
 Frc consts  --      6.5811                 6.6879                 6.7015
 IR Inten    --      0.9435                 4.1169                 0.4178

 - Thermochemistry -
 -------------------
 Temperature   298.150 Kelvin.  Pressure   1.00000 Atm.
 Atom     1 has atomic number  6 and mass  12.00000

 Molecular mass:   241.99424 amu.
 Principal axes and moments of inertia in atomic units:
                           1         2         3
     Eigenvalues --  1302.965709019.235899343.68276
           X            0.99970  -0.02367   0.00662
           Y            0.02359   0.99965   0.01164
           Z           -0.00689  -0.01148   0.99991
 This molecule is an asymmetric top.
 Rotational symmetry number  1.
 Warning -- assumption of classical behavior for rotation
           may cause significant error
 Rotational temperatures (Kelvin)      0.06647     0.00960     0.00927
 Rotational constants (GHZ):           1.38510     0.20010     0.19315
 Zero-point vibrational energy     500461.4 (Joules/Mol)
                                  119.61315 (Kcal/Mol)
 Warning -- explicit consideration of  17 degrees of freedom as
           vibrations may cause significant error
 Vibrational temperatures:     17.21    40.69    79.10    91.92   155.00
          (Kelvin)            227.33   255.33   314.26   382.25   405.33
                              465.72   503.92   542.07   607.12   616.99
                              726.56   833.67   926.86   950.92  1035.04
                             1118.43  1170.74  1188.48  1224.44  1240.02
                             1266.49  1383.08  1388.68  1404.76  1422.70
                             1483.29  1532.00  1577.34  1630.84  1644.41
                             1676.19  1706.45  1743.17  1757.05  1860.19
                             1869.96  1903.35  1920.48  1961.71  2023.29
                             2070.99  2087.08  2140.77  2159.32  2175.62
                             2203.89  2205.77  2345.16  2375.81  2614.84
                             4399.10  4415.44  4427.97  4474.28  4507.89
                             4516.92  4519.32  4588.03  4607.47  4635.24
                             4637.60

 Zero-point correction=                           0.190616 (Hartree/Particle)
 Thermal correction to Energy=                    0.203563
 Thermal correction to Enthalpy=                  0.204507
 Thermal correction to Gibbs Free Energy=         0.147020
 Sum of electronic and zero-point Energies=          -3109.731545
 Sum of electronic and thermal Energies=             -3109.718598
 Sum of electronic and thermal Enthalpies=           -3109.717654
 Sum of electronic and thermal Free Energies=        -3109.775141

                     E (Thermal)             CV                S
                      KCal/Mol        Cal/Mol-Kelvin    Cal/Mol-Kelvin
 Total                  127.738             46.275            120.993
 Electronic               0.000              0.000              0.000
 Translational            0.889              2.981             42.352
 Rotational               0.889              2.981             33.062
 Vibrational            125.960             40.313             45.578
 Vibration     1          0.593              1.987              7.655
 Vibration     2          0.593              1.984              5.946
 Vibration     3          0.596              1.976              4.630
 Vibration     4          0.597              1.972              4.333
 Vibration     5          0.606              1.943              3.309
 Vibration     6          0.621              1.894              2.574
 Vibration     7          0.628              1.870              2.355
 Vibration     8          0.646              1.813              1.972
 Vibration     9          0.672              1.736              1.624
 Vibration    10          0.681              1.707              1.523
 Vibration    11          0.708              1.628              1.291
 Vibration    12          0.727              1.575              1.165
 Vibration    13          0.747              1.520              1.052
 Vibration    14          0.784              1.422              0.885
 Vibration    15          0.790              1.407              0.862
 Vibration    16          0.860              1.239              0.646
 Vibration    17          0.936              1.076              0.486

                           ! Non-Optimized Parameters !
 Normal termination of Gaussian 16 at Tue Sep 17 09:59:57 2024.

 ----------------------------------------------------------------------
 #p M062X/def2tzvp geom=check guess=read scf(xqc,tight) integral(grid=u
 ltrafine) scrf(SMD, solvent=1,4-Dioxane) polar prop=efg volume
 ----------------------------------------------------------------------

 ---
 spe
 ---
 Structure from the checkpoint file:  "smiles_00069_conf_9.chk"
 Charge =  0 Multiplicity = 1

 SCF Done:  E(RM062X) =  -3112.33731612     A.U. after   11 cycles

  Exact polarizability:     207.729      15.436     134.161     -10.462      15.438     141.921
 Approx polarizability:     198.789      19.810     153.104     -12.018      22.721     171.044

 Normal termination of Gaussian 16 at Tue Sep 17 10:47:03 2024.
 Gaussian 16:  ES64L-G16RevC.02  7-Dec-2021

 ----------------------------------------------------------------------
 #p M062X/def2tzvp geom=check guess=read scf(xqc,tight) integral(grid=u
 ltrafine) scrf(SMD, solvent=1,4-Dioxane) nmr=giao
 ----------------------------------------------------------------------

 ---
 spe
 ---
 Structure from the checkpoint file:  "smiles_00069_conf_9.chk"
 Charge =  0 Multiplicity = 1

                         Standard orientation:
 ---------------------------------------------------------------------
 Center     Atomic      Atomic             Coordinates (Angstroms)
 Number     Number       Type             X           Y           Z
 ---------------------------------------------------------------------
      1          6           0       -4.857805    2.195700   -0.193224
      2          6           0       -4.343679    0.875384   -0.728455
      3          8           0       -3.480163    0.306085    0.284814
      4          6           0       -2.903491   -0.867774   -0.033753
      5          8           0       -3.089785   -1.455327   -1.078417
      6          6           0       -1.948398   -1.327086    1.053183
      7          6           0       -0.534403   -0.883015    0.727350
      8          6           0        0.157783   -0.013603    1.573694
      9          6           0        1.455918    0.399122    1.272978
     10          6           0        2.057368   -0.064027    0.107021
     11         35           0        3.835772    0.493307   -0.316736
     12          6           0        1.386331   -0.925914   -0.758461
     13          6           0        0.091860   -1.330038   -0.442882
     14          1           0       -4.030616    2.880128    0.013880
     15          1           0       -5.423676    2.048407    0.730814
     16          1           0       -5.516886    2.663748   -0.930442
     17          1           0       -3.766874    0.997418   -1.649983
     18          1           0       -5.152781    0.169119   -0.937213
     19          1           0       -2.260869   -0.921823    2.017239
     20          1           0       -2.004459   -2.418718    1.092019
     21          1           0       -0.318270    0.347460    2.480598
     22          1           0        1.991093    1.071332    1.933165
     23          1           0        1.869863   -1.273177   -1.663884
     24          1           0       -0.447837   -1.988186   -1.116317
 ---------------------------------------------------------------------

 SCF Done:  E(RM062X) =  -3112.33731612     A.U. after    1 cycles

      1  C    Isotropic =   172.1767   Anisotropy =    22.7360

      2  C    Isotropic =   119.4542   Anisotropy =    65.9776

      3  O    Isotropic =    89.6852   Anisotropy =   200.5296

      4  C    Isotropic =    -8.9330   Anisotropy =   120.7370

      5  O    Isotropic =  -151.6975   Anisotropy =   666.3102

      6  C    Isotropic =   139.4730   Anisotropy =    21.7160

      7  C    Isotropic =    26.5177   Anisotropy =   222.0402

      8  C    Isotropic =    32.5789   Anisotropy =   188.8654

      9  C    Isotropic =    31.1543   Anisotropy =   183.6390

     10  C    Isotropic =    25.7342   Anisotropy =   141.0127

     11  Br   Isotropic =  2090.7362   Anisotropy =  1284.8137

     12  C    Isotropic =    31.1466   Anisotropy =   186.1610

     13  C    Isotropic =    32.3165   Anisotropy =   209.3964

     14  H    Isotropic =    30.6875   Anisotropy =     7.5691

     15  H    Isotropic =    30.6044   Anisotropy =     8.2796

     16  H    Isotropic =    30.8015   Anisotropy =    10.4995

     17  H    Isotropic =    28.0993   Anisotropy =     5.0393

     18  H    Isotropic =    27.8740   Anisotropy =     6.0926

     19  H    Isotropic =    28.3306   Anisotropy =     3.7957

     20  H    Isotropic =    28.1906   Anisotropy =     5.4765

     21  H    Isotropic =    23.8361   Anisotropy =     7.7837

     22  H    Isotropic =    23.6793   Anisotropy =    10.3281

     23  H    Isotropic =    23.6820   Anisotropy =    10.4385

     24  H    Isotropic =    23.2792   Anisotropy =     9.4318

 The electronic state is 1-A.
 Alpha  occ. eigenvalues -- -485.37496 -63.35977 -57.17921 -57.17686 -57.17680
 Alpha  occ. eigenvalues --  -19.67390 -19.61971 -10.67710 -10.60376 -10.59338
 Alpha  occ. eigenvalues --  -10.56688 -10.55815 -10.55770 -10.55720 -10.55504
 Alpha  occ. eigenvalues --  -10.55247 -10.53059  -9.02622  -6.85026  -6.84156
 Alpha  occ. eigenvalues --   -6.84137  -2.88402  -2.88087  -2.88064  -2.87254
 Alpha  occ. eigenvalues --   -2.87254  -1.23352  -1.14173  -0.98486  -0.91862
 Alpha  occ. eigenvalues --   -0.88084  -0.85684  -0.85165  -0.79128  -0.72560
 Alpha  occ. eigenvalues --   -0.70771  -0.67286  -0.65429  -0.59372  -0.58490
 Alpha  occ. eigenvalues --   -0.56877  -0.55585  -0.54300  -0.53251  -0.50563
 Alpha  occ. eigenvalues --   -0.50105  -0.47791  -0.47232  -0.46352  -0.46000
 Alpha  occ. eigenvalues --   -0.44751  -0.42504  -0.42279  -0.41728  -0.40763
 Alpha  occ. eigenvalues --   -0.37810  -0.37619  -0.35619  -0.35144  -0.32153
 Alpha  occ. eigenvalues --   -0.29465
 Alpha virt. eigenvalues --    0.00319   0.00702   0.03603   0.05081   0.07074
 Alpha virt. eigenvalues --    0.09300   0.10340   0.10845   0.12059   0.12602
 Alpha virt. eigenvalues --    0.13259   0.13800   0.14634   0.15394   0.15972

 Mulliken charges:
               1
     1  C   -0.428440
     2  C   -0.105162
     3  O   -0.267093
     4  C    0.388128
     5  O   -0.368230
     6  C   -0.368898
     7  C    0.081648
     8  C   -0.188141
     9  C   -0.155322
    10  C    0.031387
    11  Br  -0.117170
    12  C   -0.155249
    13  C   -0.187244
    14  H    0.152615
    15  H    0.150050
    16  H    0.149815
    17  H    0.150553
    18  H    0.150334
    19  H    0.173345
    20  H    0.192226
    21  H    0.168738
    22  H    0.180333
    23  H    0.181973
    24  H    0.189806
 Sum of Mulliken charges =  -0.00000

 Dipole moment (field-independent basis, Debye):
    X=             -2.3755    Y=              1.0861    Z=              1.7559  Tot=              3.1474
 Quadrupole moment (field-independent basis, Debye-Ang):
   XX=            -88.0849   YY=            -89.1371   ZZ=            -86.2581
   XY=             -6.7388   XZ=             -3.1776   YZ=             -1.8480

 Normal termination of Gaussian 16 at Tue Sep 17 11:05:45 2024.
