 Gaussian 16, Revision C.02,

 ----------------------------------------------------------------------
 #p B3LYP/6-31G(d,p) EmpiricalDispersion=GD3BJ opt freq scf(xqc,tight)
 integral(grid=ultrafine)
 ----------------------------------------------------------------------

 ----------------------------------
 opt-freq conformers_unique/conf_aa
 ----------------------------------
 Symbolic Z-matrix:
 Charge =  0 Multiplicity = 1

 SCF Done:  E(RB3LYP) =  -3109.92097216     A.U. after   15 cycles
 SCF Done:  E(RB3LYP) =  -3109.92242055     A.U. after   12 cycles
 SCF Done:  E(RB3LYP) =  -3109.92159700     A.U. after   13 cycles
 SCF Done:  E(RB3LYP) =  -3109.92283133     A.U. after   11 cycles
 SCF Done:  E(RB3LYP) =  -3109.92284607     A.U. after   10 cycles
 SCF Done:  E(RB3LYP) =  -3109.92285217     A.U. after   10 cycles
 SCF Done:  E(RB3LYP) =  -3109.92285330     A.U. after    9 cycles
 SCF Done:  E(RB3LYP) =  -3109.92285393     A.U. after    9 cycles
 SCF Done:  E(RB3LYP) =  -3109.92285406     A.U. after    8 cycles
 SCF Done:  E(RB3LYP) =  -3109.92285419     A.U. after    8 cycles
 SCF Done:  E(RB3LYP) =  -3109.92285510     A.U. after   10 cycles
 SCF Done:  E(RB3LYP) =  -3109.92285614     A.U. after   10 cycles
 SCF Done:  E(RB3LYP) =  -3109.92285671     A.U. after    8 cycles
 SCF Done:  E(RB3LYP) =  -3109.92285780     A.U. after   10 cycles
 SCF Done:  E(RB3LYP) =  -3109.92285810     A.U. after    8 cycles
 SCF Done:  E(RB3LYP) =  -3109.92285828     A.U. after    9 cycles
 SCF Done:  E(RB3LYP) =  -3109.92285827     A.U. after    7 cycles
 Optimization completed.
    -- Stationary point found.
 Normal termination of Gaussian 16 at Tue Sep 17 09:59:23 2024.

 ----------------------------------------------------------------------
 #P Geom=AllCheck Guess=TCheck SCRF=Check GenChk RB3LYP/6-31G(d,p) Freq
 ----------------------------------------------------------------------

 Structure from the checkpoint file:  "smiles_00069_conf_0.chk"
 ----------------------------------
 opt-freq conformers_unique/conf_aa
 ----------------------------------
 Charge =  0 Multiplicity = 1

 SCF Done:  E(RB3LYP) =  -3109.92285827     A.U. after    1 cycles

                      1                      2                      3
                      A                      A                      A
 Frequencies --     13.6189                30.1258                34.3225
 Red. masses --      3.8597                 4.4733                 4.3490
 Frc consts  --      0.0004                 0.0024                 0.0030
 IR Inten    --      0.0874                 0.3574                 0.7338

                      4                      5                      6
                      A                      A                      A
 Frequencies --     77.0947                98.0227               153.6107
 Red. masses --      5.3378                 3.7700                 6.9382
 Frc consts  --      0.0187                 0.0213                 0.0965
 IR Inten    --      1.3072                 0.5200                 1.2158

                      7                      8                      9
                      A                      A                      A
 Frequencies --    188.5637               223.1026               284.3340
 Red. masses --      3.6414                 1.4021                 8.3589
 Frc consts  --      0.0763                 0.0411                 0.3982
 IR Inten    --      1.0075                 1.2356                 2.0090

                     10                     11                     12
                      A                      A                      A
 Frequencies --    298.4883               331.7320               345.1890
 Red. masses --      2.7071                 5.8350                 3.3394
 Frc consts  --      0.1421                 0.3783                 0.2344
 IR Inten    --      3.1399                 2.9246                 7.3069

                     13                     14                     15
                      A                      A                      A
 Frequencies --    401.8540               420.9899               458.2081
 Red. masses --      2.4097                 2.9593                 2.8864
 Frc consts  --      0.2293                 0.3090                 0.3570
 IR Inten    --      3.0230                 0.0731                10.7833

                     16                     17                     18
                      A                      A                      A
 Frequencies --    509.4449               584.7745               648.3076
 Red. masses --      3.1483                 5.8140                 6.3402
 Frc consts  --      0.4814                 1.1714                 1.5701
 IR Inten    --      9.6591                 4.1451                 1.1330

                     19                     20                     21
                      A                      A                      A
 Frequencies --    658.3982               716.4573               767.3389
 Red. masses --      4.0627                 4.3757                 3.2694
 Frc consts  --      1.0376                 1.3234                 1.1342
 IR Inten    --     10.2571                 4.5240                20.4261

                     22                     23                     24
                      A                      A                      A
 Frequencies --    798.7984               826.1235               845.0812
 Red. masses --      1.4625                 2.0371                 1.2495
 Frc consts  --      0.5498                 0.8191                 0.5258
 IR Inten    --      6.9751                20.6740                 0.1677

                     25                     26                     27
                      A                      A                      A
 Frequencies --    855.1144               874.6431               936.2083
 Red. masses --      2.1937                 2.9900                 2.6436
 Frc consts  --      0.9451                 1.3477                 1.3652
 IR Inten    --     10.3006                 4.6478                 4.0207

                     28                     29                     30
                      A                      A                      A
 Frequencies --    965.6095               974.3517               976.9017
 Red. masses --      1.7752                 1.3545                 1.5223
 Frc consts  --      0.9752                 0.7576                 0.8560
 IR Inten    --      2.0354                 0.1274                 0.0131

                     31                     32                     33
                      A                      A                      A
 Frequencies --   1031.0537              1055.1765              1096.0654
 Red. masses --      4.8517                 3.6915                 2.6209
 Frc consts  --      3.0388                 2.4216                 1.8551
 IR Inten    --     39.9555                40.4947                28.8539

                     34                     35                     36
                      A                      A                      A
 Frequencies --   1125.5911              1130.7567              1159.1055
 Red. masses --      1.8961                 1.5269                 1.3506
 Frc consts  --      1.4154                 1.1503                 1.0691
 IR Inten    --     18.9945                43.1016                99.0859

                     37                     38                     39
                      A                      A                      A
 Frequencies --   1202.6757              1210.5961              1220.8195
 Red. masses --      1.7241                 1.1297                 2.6642
 Frc consts  --      1.4693                 0.9754                 2.3395
 IR Inten    --      5.9299                 0.2363                15.8241

                     40                     41                     42
                      A                      A                      A
 Frequencies --   1283.7017              1320.6650              1333.7412
 Red. masses --      2.4913                 1.7068                 1.4322
 Frc consts  --      2.4189                 1.7540                 1.5011
 IR Inten    --    224.1146                74.2719                 8.9147

                     43                     44                     45
                      A                      A                      A
 Frequencies --   1333.9973              1355.2945              1407.4984
 Red. masses --      1.2660                 2.9943                 1.2873
 Frc consts  --      1.3274                 3.2405                 1.5025
 IR Inten    --     11.7558                 3.4838                 9.1163

                     46                     47                     48
                      A                      A                      A
 Frequencies --   1432.6248              1448.3323              1489.8180
 Red. masses --      1.3301                 2.6897                 1.1050
 Frc consts  --      1.6085                 3.3242                 1.4451
 IR Inten    --      9.3036                 7.6509                 8.5623

                     49                     50                     51
                      A                      A                      A
 Frequencies --   1499.6226              1504.7675              1521.5672
 Red. masses --      1.0459                 1.0848                 1.0588
 Frc consts  --      1.3858                 1.4473                 1.4443
 IR Inten    --      8.8753                 7.7539                 9.2119

                     52                     53                     54
                      A                      A                      A
 Frequencies --   1532.9596              1630.2085              1650.7712
 Red. masses --      2.3255                 6.8929                 5.7671
 Frc consts  --      3.2197                10.7930                 9.2594
 IR Inten    --     57.9857                 0.3043                 6.2392

                     55                     56                     57
                      A                      A                      A
 Frequencies --   1827.8929              3057.5146              3083.3623
 Red. masses --     10.9421                 1.0359                 1.0603
 Frc consts  --     21.5404                 5.7054                 5.9395
 IR Inten    --    219.1336                12.0210                12.7139

                     58                     59                     60
                      A                      A                      A
 Frequencies --   3087.5614              3128.6446              3136.9072
 Red. masses --      1.0586                 1.1028                 1.1044
 Frc consts  --      5.9458                 6.3603                 6.4031
 IR Inten    --     32.5077                21.6947                10.4307

                     61                     62                     63
                      A                      A                      A
 Frequencies --   3147.9880              3156.2046              3192.9746
 Red. masses --      1.1055                 1.1072                 1.0895
 Frc consts  --      6.4547                 6.4984                 6.5447
 IR Inten    --      4.5650                23.5442                 6.4684

                     64                     65                     66
                      A                      A                      A
 Frequencies --   3198.4649              3221.8762              3223.2140
 Red. masses --      1.0890                 1.0939                 1.0945
 Frc consts  --      6.5642                 6.6901                 6.6998
 IR Inten    --      5.2584                 4.6436                 0.2004

 - Thermochemistry -
 -------------------
 Temperature   298.150 Kelvin.  Pressure   1.00000 Atm.
 Atom     1 has atomic number  6 and mass  12.00000

 Molecular mass:   241.99424 amu.
 Principal axes and moments of inertia in atomic units:
                           1         2         3
     Eigenvalues --  1380.366737824.101818393.88772
           X            0.99971   0.02373  -0.00291
           Y           -0.02373   0.99972  -0.00235
           Z            0.00285   0.00242   0.99999
 This molecule is an asymmetric top.
 Rotational symmetry number  1.
 Warning -- assumption of classical behavior for rotation
           may cause significant error
 Rotational temperatures (Kelvin)      0.06275     0.01107     0.01032
 Rotational constants (GHZ):           1.30744     0.23066     0.21501
 Zero-point vibrational energy     500857.4 (Joules/Mol)
                                  119.70780 (Kcal/Mol)
 Warning -- explicit consideration of  17 degrees of freedom as
           vibrations may cause significant error
 Vibrational temperatures:     19.59    43.34    49.38   110.92   141.03
          (Kelvin)            221.01   271.30   320.99   409.09   429.46
                              477.29   496.65   578.18   605.71   659.26
                              732.98   841.36   932.77   947.29  1030.82
                             1104.03  1149.29  1188.61  1215.88  1230.32
                             1258.42  1346.99  1389.30  1401.87  1405.54
                             1483.46  1518.16  1576.99  1619.47  1626.91
                             1667.69  1730.38  1741.78  1756.49  1846.96
                             1900.14  1918.96  1919.32  1949.97  2025.08
                             2061.23  2083.83  2143.52  2157.62  2165.02
                             2189.20  2205.59  2345.51  2375.09  2629.93
                             4399.08  4436.27  4442.31  4501.42  4513.31
                             4529.25  4541.07  4593.98  4601.88  4635.56
                             4637.49

 Zero-point correction=                           0.190767 (Hartree/Particle)
 Thermal correction to Energy=                    0.203639
 Thermal correction to Enthalpy=                  0.204583
 Thermal correction to Gibbs Free Energy=         0.147240
 Sum of electronic and zero-point Energies=          -3109.732092
 Sum of electronic and thermal Energies=             -3109.719220
 Sum of electronic and thermal Enthalpies=           -3109.718275
 Sum of electronic and thermal Free Energies=        -3109.775618

                     E (Thermal)             CV                S
                      KCal/Mol        Cal/Mol-Kelvin    Cal/Mol-Kelvin
 Total                  127.785             46.193            120.688
 Electronic               0.000              0.000              0.000
 Translational            0.889              2.981             42.352
 Rotational               0.889              2.981             32.872
 Vibrational            126.008             40.231             45.464
 Vibration     1          0.593              1.986              7.397
 Vibration     2          0.594              1.984              5.821
 Vibration     3          0.594              1.983              5.562
 Vibration     4          0.599              1.964              3.964
 Vibration     5          0.603              1.951              3.493
 Vibration     6          0.619              1.899              2.627
 Vibration     7          0.633              1.856              2.242
 Vibration     8          0.649              1.806              1.934
 Vibration     9          0.683              1.703              1.507
 Vibration    10          0.692              1.677              1.425
 Vibration    11          0.714              1.612              1.252
 Vibration    12          0.724              1.585              1.188
 Vibration    13          0.767              1.466              0.956
 Vibration    14          0.783              1.425              0.889
 Vibration    15          0.816              1.343              0.771
 Vibration    16          0.865              1.229              0.635
 Vibration    17          0.942              1.064              0.477

 Optimization completed.
    -- Stationary point found.
 Normal termination of Gaussian 16 at Tue Sep 17 10:01:46 2024.

 ----------------------------------------------------------------------
 #p M062X/def2tzvp geom=check guess=read scf(xqc,tight) integral(grid=u
 ltrafine) scrf(SMD, solvent=1,4-Dioxane) polar prop=efg volume
 ----------------------------------------------------------------------

 ---
 spe
 ---
 Structure from the checkpoint file:  "smiles_00069_conf_0.chk"
 Charge =  0 Multiplicity = 1

 SCF Done:  E(RM062X) =  -3112.33732300     A.U. after   12 cycles

  Exact polarizability:     203.550     -16.707     142.338       9.568      16.625     134.364
 Approx polarizability:     199.170     -19.545     158.643       9.995      24.013     166.298

 Normal termination of Gaussian 16 at Tue Sep 17 10:53:17 2024.
 Gaussian 16:  ES64L-G16RevC.02  7-Dec-2021

 ----------------------------------------------------------------------
 #p M062X/def2tzvp geom=check guess=read scf(xqc,tight) integral(grid=u
 ltrafine) scrf(SMD, solvent=1,4-Dioxane) nmr=giao
 ----------------------------------------------------------------------

 ---
 spe
 ---
 Structure from the checkpoint file:  "smiles_00069_conf_0.chk"
 Charge =  0 Multiplicity = 1

                         Standard orientation:
 ---------------------------------------------------------------------
 Center     Atomic      Atomic             Coordinates (Angstroms)
 Number     Number       Type             X           Y           Z
 ---------------------------------------------------------------------
      1          6           0        3.149970    2.312122   -0.742728
      2          6           0        4.064829    1.432820    0.092781
      3          8           0        3.317400    0.352257    0.703403
      4          6           0        3.073730   -0.720506   -0.080333
      5          8           0        3.515170   -0.868932   -1.198076
      6          6           0        2.120845   -1.679321    0.613851
      7          6           0        0.699410   -1.178750    0.450236
      8          6           0        0.188949   -0.193360    1.302929
      9          6           0       -1.100599    0.304070    1.131006
     10          6           0       -1.882374   -0.188879    0.088493
     11         35           0       -3.654033    0.485151   -0.153763
     12          6           0       -1.396611   -1.162938   -0.779017
     13          6           0       -0.103607   -1.650121   -0.592547
     14          1           0        2.316968    2.685236   -0.140454
     15          1           0        2.749230    1.748953   -1.588520
     16          1           0        3.708059    3.169206   -1.132601
     17          1           0        4.492333    1.977857    0.936756
     18          1           0        4.868603    1.006537   -0.511456
     19          1           0        2.242371   -2.659806    0.151063
     20          1           0        2.383728   -1.745737    1.672841
     21          1           0        0.810330    0.194386    2.103851
     22          1           0       -1.495688    1.063246    1.795663
     23          1           0       -2.017669   -1.533231   -1.586003
     24          1           0        0.285095   -2.404373   -1.270076
 ---------------------------------------------------------------------

 SCF Done:  E(RM062X) =  -3112.33732300     A.U. after    1 cycles

      1  C    Isotropic =   172.0274   Anisotropy =    22.9386

      2  C    Isotropic =   120.9905   Anisotropy =    71.8104

      3  O    Isotropic =    96.8394   Anisotropy =   173.1456

      4  C    Isotropic =    -6.9403   Anisotropy =   117.9848

      5  O    Isotropic =  -148.2820   Anisotropy =   675.0656

      6  C    Isotropic =   138.0799   Anisotropy =    20.7694

      7  C    Isotropic =    26.1859   Anisotropy =   221.9366

      8  C    Isotropic =    31.2837   Anisotropy =   201.5632

      9  C    Isotropic =    31.3132   Anisotropy =   184.8225

     10  C    Isotropic =    25.5338   Anisotropy =   141.8078

     11  Br   Isotropic =  2089.0362   Anisotropy =  1291.4974

     12  C    Isotropic =    30.9762   Anisotropy =   185.2040

     13  C    Isotropic =    31.8953   Anisotropy =   194.4786

     14  H    Isotropic =    31.2131   Anisotropy =     7.1807

     15  H    Isotropic =    30.9164   Anisotropy =     4.9179

     16  H    Isotropic =    31.1774   Anisotropy =    11.2669

     17  H    Isotropic =    28.1630   Anisotropy =     7.8009

     18  H    Isotropic =    27.1524   Anisotropy =     6.4512

     19  H    Isotropic =    28.4012   Anisotropy =     5.3835

     20  H    Isotropic =    28.1311   Anisotropy =     4.4492

     21  H    Isotropic =    23.4990   Anisotropy =     8.2043

     22  H    Isotropic =    23.6384   Anisotropy =    10.4391

     23  H    Isotropic =    23.6760   Anisotropy =    10.1968

     24  H    Isotropic =    23.6743   Anisotropy =     7.9798

 The electronic state is 1-A.
 Alpha  occ. eigenvalues -- -485.37559 -63.36040 -57.17984 -57.17749 -57.17743
 Alpha  occ. eigenvalues --  -19.67195 -19.62014 -10.67733 -10.60454 -10.59235
 Alpha  occ. eigenvalues --  -10.56704 -10.55826 -10.55797 -10.55790 -10.55493
 Alpha  occ. eigenvalues --  -10.55472 -10.52716  -9.02685  -6.85088  -6.84219
 Alpha  occ. eigenvalues --   -6.84200  -2.88465  -2.88150  -2.88127  -2.87316
 Alpha  occ. eigenvalues --   -2.87316  -1.23148  -1.14190  -0.98565  -0.91943
 Alpha  occ. eigenvalues --   -0.87835  -0.85760  -0.84949  -0.79138  -0.73595
 Alpha  occ. eigenvalues --   -0.70763  -0.67359  -0.63997  -0.59707  -0.58169
 Alpha  occ. eigenvalues --   -0.57137  -0.55102  -0.54341  -0.53251  -0.50852
 Alpha  occ. eigenvalues --   -0.50101  -0.48313  -0.47029  -0.46654  -0.45807
 Alpha  occ. eigenvalues --   -0.44613  -0.43747  -0.41491  -0.40830  -0.40531
 Alpha  occ. eigenvalues --   -0.38342  -0.37458  -0.35648  -0.35205  -0.32212
 Alpha  occ. eigenvalues --   -0.29481
 Alpha virt. eigenvalues --    0.00095   0.00663   0.03522   0.05300   0.07259
 Alpha virt. eigenvalues --    0.09379   0.10310   0.10482   0.11367   0.12057
 Alpha virt. eigenvalues --    0.13505   0.14021   0.14469   0.15273   0.15683

 Mulliken charges:
               1
     1  C   -0.442900
     2  C   -0.109121
     3  O   -0.274043
     4  C    0.378489
     5  O   -0.358204
     6  C   -0.410307
     7  C    0.121231
     8  C   -0.211192
     9  C   -0.144724
    10  C    0.029754
    11  Br  -0.115763
    12  C   -0.151504
    13  C   -0.188675
    14  H    0.150803
    15  H    0.168310
    16  H    0.153551
    17  H    0.148778
    18  H    0.158289
    19  H    0.185692
    20  H    0.198919
    21  H    0.175668
    22  H    0.181451
    23  H    0.181738
    24  H    0.173759
 Sum of Mulliken charges =  -0.00000

 Dipole moment (field-independent basis, Debye):
    X=              1.5357    Y=              0.4973    Z=              1.7813  Tot=              2.4039
 Quadrupole moment (field-independent basis, Debye-Ang):
   XX=            -94.0570   YY=            -83.1382   ZZ=            -89.6417
   XY=              6.2149   XZ=              7.3942   YZ=              0.9140

 Normal termination of Gaussian 16 at Tue Sep 17 11:11:48 2024.
