 Gaussian 16, Revision C.02,

 ----------------------------------------------------------------------
 #p B3LYP/6-31G(d,p) EmpiricalDispersion=GD3BJ opt freq scf(xqc,tight)
 integral(grid=ultrafine)
 ----------------------------------------------------------------------

 ----------------------------------
 opt-freq conformers_unique/conf_ad
 ----------------------------------
 Symbolic Z-matrix:
 Charge =  0 Multiplicity = 1

 SCF Done:  E(RB3LYP) =  -3109.92005893     A.U. after   14 cycles
 SCF Done:  E(RB3LYP) =  -3109.92163729     A.U. after   12 cycles
 SCF Done:  E(RB3LYP) =  -3109.92090450     A.U. after   13 cycles
 SCF Done:  E(RB3LYP) =  -3109.92193749     A.U. after   11 cycles
 SCF Done:  E(RB3LYP) =  -3109.92197005     A.U. after   11 cycles
 SCF Done:  E(RB3LYP) =  -3109.92200463     A.U. after   12 cycles
 SCF Done:  E(RB3LYP) =  -3109.92201317     A.U. after   10 cycles
 SCF Done:  E(RB3LYP) =  -3109.92201684     A.U. after    9 cycles
 SCF Done:  E(RB3LYP) =  -3109.92201727     A.U. after    8 cycles
 SCF Done:  E(RB3LYP) =  -3109.92201784     A.U. after    8 cycles
 SCF Done:  E(RB3LYP) =  -3109.92202083     A.U. after   10 cycles
 SCF Done:  E(RB3LYP) =  -3109.92202292     A.U. after   11 cycles
 SCF Done:  E(RB3LYP) =  -3109.92202515     A.U. after   10 cycles
 SCF Done:  E(RB3LYP) =  -3109.92202564     A.U. after   11 cycles
 SCF Done:  E(RB3LYP) =  -3109.92202589     A.U. after   10 cycles
 SCF Done:  E(RB3LYP) =  -3109.92202598     A.U. after    9 cycles
 SCF Done:  E(RB3LYP) =  -3109.92202598     A.U. after    7 cycles
 Optimization completed.
    -- Stationary point found.
 Normal termination of Gaussian 16 at Tue Sep 17 10:00:18 2024.

 ----------------------------------------------------------------------
 #P Geom=AllCheck Guess=TCheck SCRF=Check GenChk RB3LYP/6-31G(d,p) Freq
 ----------------------------------------------------------------------

 Structure from the checkpoint file:  "smiles_00069_conf_3.chk"
 ----------------------------------
 opt-freq conformers_unique/conf_ad
 ----------------------------------
 Charge =  0 Multiplicity = 1

 SCF Done:  E(RB3LYP) =  -3109.92202598     A.U. after    1 cycles

                      1                      2                      3
                      A                      A                      A
 Frequencies --     12.9088                18.8856                41.5297
 Red. masses --      3.8486                 3.7310                 6.4765
 Frc consts  --      0.0004                 0.0008                 0.0066
 IR Inten    --      0.1102                 0.4967                 0.3574

                      4                      5                      6
                      A                      A                      A
 Frequencies --     59.4573               103.7315               157.6255
 Red. masses --      3.4615                 3.7143                 3.5806
 Frc consts  --      0.0072                 0.0235                 0.0524
 IR Inten    --      0.5603                 0.5928                 2.5453

                      7                      8                      9
                      A                      A                      A
 Frequencies --    167.0520               221.2324               265.3904
 Red. masses --      4.3097                 4.0401                 1.3243
 Frc consts  --      0.0709                 0.1165                 0.0550
 IR Inten    --      1.5166                 1.7654                 0.2694

                     10                     11                     12
                      A                      A                      A
 Frequencies --    284.7783               325.4505               340.5600
 Red. masses --      7.7212                 5.3265                 5.1094
 Frc consts  --      0.3689                 0.3324                 0.3491
 IR Inten    --      2.6305                 4.4270                 6.6082

                     13                     14                     15
                      A                      A                      A
 Frequencies --    381.3183               420.9453               434.4423
 Red. masses --      3.1306                 2.9706                 2.2095
 Frc consts  --      0.2682                 0.3101                 0.2457
 IR Inten    --      7.5419                 0.0713                 2.1758

                     16                     17                     18
                      A                      A                      A
 Frequencies --    508.9341               575.6117               648.1042
 Red. masses --      3.2036                 5.8826                 6.2383
 Frc consts  --      0.4889                 1.1484                 1.5438
 IR Inten    --      8.8347                 6.2989                 1.6743

                     19                     20                     21
                      A                      A                      A
 Frequencies --    655.9071               716.3721               771.5562
 Red. masses --      4.9720                 4.3236                 3.8858
 Frc consts  --      1.2603                 1.3073                 1.3629
 IR Inten    --      8.6996                 3.8761                21.1270

                     22                     23                     24
                      A                      A                      A
 Frequencies --    813.6519               826.2040               845.0939
 Red. masses --      1.1228                 1.9759                 1.2503
 Frc consts  --      0.4379                 0.7947                 0.5261
 IR Inten    --      0.1231                20.1226                 0.1441

                     25                     26                     27
                      A                      A                      A
 Frequencies --    860.7117               877.5683               957.5275
 Red. masses --      2.3760                 3.2599                 2.9805
 Frc consts  --      1.0371                 1.4792                 1.6100
 IR Inten    --     16.9220                 1.5567                 2.6232

                     28                     29                     30
                      A                      A                      A
 Frequencies --    968.2257               974.2230               977.0155
 Red. masses --      1.9837                 1.3630                 1.5186
 Frc consts  --      1.0957                 0.7622                 0.8541
 IR Inten    --      5.9526                 0.3056                 0.2326

                     31                     32                     33
                      A                      A                      A
 Frequencies --   1031.0288              1065.9213              1096.0640
 Red. masses --      4.8491                 3.2358                 2.6203
 Frc consts  --      3.0371                 2.1661                 1.8547
 IR Inten    --     40.5861                56.2002                28.8013

                     34                     35                     36
                      A                      A                      A
 Frequencies --   1130.2104              1142.9111              1162.9954
 Red. masses --      1.4713                 2.0730                 1.3519
 Frc consts  --      1.1073                 1.5954                 1.0774
 IR Inten    --     17.3684                16.2426               117.6725

                     37                     38                     39
                      A                      A                      A
 Frequencies --   1186.2735              1210.6126              1222.1934
 Red. masses --      1.5493                 1.1289                 2.6809
 Frc consts  --      1.2846                 0.9748                 2.3594
 IR Inten    --      4.1603                 0.2228                15.4731

                     40                     41                     42
                      A                      A                      A
 Frequencies --   1293.2401              1299.1734              1321.4539
 Red. masses --      2.4827                 1.1868                 1.6808
 Frc consts  --      2.4464                 1.1802                 1.7293
 IR Inten    --    266.2403                39.5400                79.3716

                     43                     44                     45
                      A                      A                      A
 Frequencies --   1333.8576              1355.4802              1404.4072
 Red. masses --      1.6120                 2.9806                 1.3310
 Frc consts  --      1.6898                 3.2265                 1.5467
 IR Inten    --      1.5353                 5.0199                 5.5410

                     46                     47                     48
                      A                      A                      A
 Frequencies --   1439.1655              1448.3932              1489.1948
 Red. masses --      1.4055                 2.6881                 1.1036
 Frc consts  --      1.7151                 3.3226                 1.4420
 IR Inten    --      9.0230                 7.8101                 9.0227

                     49                     50                     51
                      A                      A                      A
 Frequencies --   1500.7434              1512.3562              1532.2261
 Red. masses --      1.0394                 1.0502                 1.1234
 Frc consts  --      1.3793                 1.4152                 1.5539
 IR Inten    --      4.9671                 2.3477                 5.8783

                     52                     53                     54
                      A                      A                      A
 Frequencies --   1533.2294              1630.3648              1651.0468
 Red. masses --      2.1688                 6.8880                 5.7706
 Frc consts  --      3.0039                10.7873                 9.2681
 IR Inten    --     57.5207                 0.2832                 5.7293

                     55                     56                     57
                      A                      A                      A
 Frequencies --   1830.0627              3056.9814              3068.4396
 Red. masses --     11.4321                 1.0354                 1.0583
 Frc consts  --     22.5584                 5.7008                 5.8710
 IR Inten    --    238.6592                14.3210                18.5973

                     58                     59                     60
                      A                      A                      A
 Frequencies --   3080.3424              3109.4715              3132.9730
 Red. masses --      1.0611                 1.1077                 1.1020
 Frc consts  --      5.9323                 6.3104                 6.3730
 IR Inten    --     11.7426                 6.4257                23.7917

                     61                     62                     63
                      A                      A                      A
 Frequencies --   3140.1829              3146.4121              3192.1825
 Red. masses --      1.1051                 1.1045                 1.0896
 Frc consts  --      6.4207                 6.4421                 6.5417
 IR Inten    --     36.8977                 5.4708                 6.6021

                     64                     65                     66
                      A                      A                      A
 Frequencies --   3198.0094              3221.7873              3223.2171
 Red. masses --      1.0891                 1.0939                 1.0944
 Frc consts  --      6.5625                 6.6900                 6.6992
 IR Inten    --      5.9940                 4.7070                 0.3224

 - Thermochemistry -
 -------------------
 Temperature   298.150 Kelvin.  Pressure   1.00000 Atm.
 Atom     1 has atomic number  6 and mass  12.00000

 Molecular mass:   241.99424 amu.
 Principal axes and moments of inertia in atomic units:
                           1         2         3
     Eigenvalues --  1443.114058230.261059025.85797
           X            0.99958   0.02860  -0.00430
           Y           -0.02858   0.99958   0.00407
           Z            0.00441  -0.00395   0.99998
 This molecule is an asymmetric top.
 Rotational symmetry number  1.
 Warning -- assumption of classical behavior for rotation
           may cause significant error
 Rotational temperatures (Kelvin)      0.06002     0.01052     0.00960
 Rotational constants (GHZ):           1.25059     0.21928     0.19995
 Zero-point vibrational energy     500066.7 (Joules/Mol)
                                  119.51881 (Kcal/Mol)
 Warning -- explicit consideration of  17 degrees of freedom as
           vibrations may cause significant error
 Vibrational temperatures:     18.57    27.17    59.75    85.55   149.25
          (Kelvin)            226.79   240.35   318.30   381.84   409.73
                              468.25   489.99   548.63   605.65   625.07
                              732.24   828.18   932.48   943.70  1030.70
                             1110.10  1170.66  1188.72  1215.90  1238.37
                             1262.63  1377.67  1393.06  1401.69  1405.71
                             1483.42  1533.62  1576.99  1626.12  1644.39
                             1673.29  1706.78  1741.80  1758.46  1860.68
                             1869.22  1901.28  1919.12  1950.23  2020.63
                             2070.64  2083.91  2142.62  2159.23  2175.94
                             2204.53  2205.98  2345.73  2375.49  2633.05
                             4398.31  4414.80  4431.93  4473.84  4507.65
                             4518.02  4526.99  4592.84  4601.22  4635.43
                             4637.49

 Zero-point correction=                           0.190465 (Hartree/Particle)
 Thermal correction to Energy=                    0.203494
 Thermal correction to Enthalpy=                  0.204438
 Thermal correction to Gibbs Free Energy=         0.146239
 Sum of electronic and zero-point Energies=          -3109.731561
 Sum of electronic and thermal Energies=             -3109.718532
 Sum of electronic and thermal Enthalpies=           -3109.717588
 Sum of electronic and thermal Free Energies=        -3109.775787

                     E (Thermal)             CV                S
                      KCal/Mol        Cal/Mol-Kelvin    Cal/Mol-Kelvin
 Total                  127.695             46.343            122.492
 Electronic               0.000              0.000              0.000
 Translational            0.889              2.981             42.352
 Rotational               0.889              2.981             33.038
 Vibrational            125.917             40.381             47.101
 Vibration     1          0.593              1.987              7.504
 Vibration     2          0.593              1.986              6.748
 Vibration     3          0.594              1.981              5.185
 Vibration     4          0.597              1.974              4.475
 Vibration     5          0.605              1.946              3.383
 Vibration     6          0.621              1.894              2.578
 Vibration     7          0.624              1.883              2.468
 Vibration     8          0.648              1.809              1.949
 Vibration     9          0.671              1.736              1.626
 Vibration    10          0.683              1.702              1.505
 Vibration    11          0.710              1.625              1.283
 Vibration    12          0.720              1.594              1.210
 Vibration    13          0.751              1.510              1.034
 Vibration    14          0.783              1.425              0.889
 Vibration    15          0.795              1.395              0.844
 Vibration    16          0.864              1.230              0.636
 Vibration    17          0.932              1.084              0.494

 Optimization completed.
    -- Stationary point found.
 Normal termination of Gaussian 16 at Tue Sep 17 10:02:16 2024.

 ----------------------------------------------------------------------
 #p M062X/def2tzvp geom=check guess=read scf(xqc,tight) integral(grid=u
 ltrafine) scrf(SMD, solvent=1,4-Dioxane) polar prop=efg volume
 ----------------------------------------------------------------------

 ---
 spe
 ---
 Structure from the checkpoint file:  "smiles_00069_conf_3.chk"
 Charge =  0 Multiplicity = 1

 SCF Done:  E(RM062X) =  -3112.33746129     A.U. after   12 cycles

  Exact polarizability:     204.989     -13.504     155.033      12.076      15.371     123.131
 Approx polarizability:     199.218     -16.554     173.918      14.094      22.330     149.873

 Normal termination of Gaussian 16 at Tue Sep 17 10:49:46 2024.
 Gaussian 16:  ES64L-G16RevC.02  7-Dec-2021

 ----------------------------------------------------------------------
 #p M062X/def2tzvp geom=check guess=read scf(xqc,tight) integral(grid=u
 ltrafine) scrf(SMD, solvent=1,4-Dioxane) nmr=giao
 ----------------------------------------------------------------------

 ---
 spe
 ---
 Structure from the checkpoint file:  "smiles_00069_conf_3.chk"
 Charge =  0 Multiplicity = 1

                         Standard orientation:
 ---------------------------------------------------------------------
 Center     Atomic      Atomic             Coordinates (Angstroms)
 Number     Number       Type             X           Y           Z
 ---------------------------------------------------------------------
      1          6           0        4.181967    2.513919   -0.130389
      2          6           0        4.075238    1.098313   -0.658466
      3          8           0        3.246619    0.355789    0.266479
      4          6           0        2.973501   -0.918354   -0.083060
      5          8           0        3.413585   -1.460489   -1.071987
      6          6           0        2.006530   -1.549752    0.905867
      7          6           0        0.597509   -1.055040    0.648352
      8          6           0        0.158003    0.160037    1.185662
      9          6           0       -1.123621    0.637583    0.922426
     10          6           0       -1.969879   -0.110255    0.106620
     11         35           0       -3.731727    0.534410   -0.257263
     12          6           0       -1.555806   -1.318212   -0.447111
     13          6           0       -0.269818   -1.781825   -0.172799
     14          1           0        4.637123    2.526547    0.863862
     15          1           0        3.194282    2.978570   -0.064272
     16          1           0        4.802273    3.115610   -0.801270
     17          1           0        5.050661    0.607330   -0.728069
     18          1           0        3.614717    1.059406   -1.649899
     19          1           0        2.067489   -2.631376    0.776944
     20          1           0        2.319575   -1.293311    1.921830
     21          1           0        0.828572    0.742289    1.809624
     22          1           0       -1.463492    1.576220    1.343944
     23          1           0       -2.226514   -1.886007   -1.080992
     24          1           0        0.062380   -2.720508   -0.606033
 ---------------------------------------------------------------------

 SCF Done:  E(RM062X) =  -3112.33746129     A.U. after    1 cycles

      1  C    Isotropic =   172.0486   Anisotropy =    22.2914

      2  C    Isotropic =   119.8035   Anisotropy =    65.6182

      3  O    Isotropic =    96.6168   Anisotropy =   194.4549

      4  C    Isotropic =    -7.0419   Anisotropy =   116.7879

      5  O    Isotropic =  -157.2364   Anisotropy =   668.5544

      6  C    Isotropic =   138.4505   Anisotropy =    21.4742

      7  C    Isotropic =    26.2226   Anisotropy =   221.5763

      8  C    Isotropic =    30.9823   Anisotropy =   199.5653

      9  C    Isotropic =    31.4601   Anisotropy =   185.0831

     10  C    Isotropic =    25.7578   Anisotropy =   141.8583

     11  Br   Isotropic =  2088.6193   Anisotropy =  1291.7818

     12  C    Isotropic =    30.6577   Anisotropy =   183.5565

     13  C    Isotropic =    32.3409   Anisotropy =   195.0142

     14  H    Isotropic =    30.5470   Anisotropy =     8.0124

     15  H    Isotropic =    30.6505   Anisotropy =     7.6291

     16  H    Isotropic =    30.7840   Anisotropy =    10.5651

     17  H    Isotropic =    27.9249   Anisotropy =     6.5882

     18  H    Isotropic =    28.1631   Anisotropy =     5.2546

     19  H    Isotropic =    28.3921   Anisotropy =     5.2473

     20  H    Isotropic =    28.1068   Anisotropy =     4.1880

     21  H    Isotropic =    23.4534   Anisotropy =     8.2015

     22  H    Isotropic =    23.6647   Anisotropy =    10.5800

     23  H    Isotropic =    23.6496   Anisotropy =    10.3152

     24  H    Isotropic =    23.7214   Anisotropy =     8.0867

 The electronic state is 1-A.
 Alpha  occ. eigenvalues -- -485.37550 -63.36031 -57.17975 -57.17740 -57.17735
 Alpha  occ. eigenvalues --  -19.67240 -19.62021 -10.67661 -10.60438 -10.59313
 Alpha  occ. eigenvalues --  -10.56678 -10.55809 -10.55808 -10.55782 -10.55475
 Alpha  occ. eigenvalues --  -10.55452 -10.53079  -9.02676  -6.85080  -6.84210
 Alpha  occ. eigenvalues --   -6.84191  -2.88456  -2.88141  -2.88118  -2.87308
 Alpha  occ. eigenvalues --   -2.87308  -1.23256  -1.14186  -0.98547  -0.91941
 Alpha  occ. eigenvalues --   -0.88064  -0.85744  -0.85146  -0.79128  -0.72607
 Alpha  occ. eigenvalues --   -0.70732  -0.67346  -0.65432  -0.59493  -0.58344
 Alpha  occ. eigenvalues --   -0.56668  -0.55664  -0.54593  -0.53416  -0.50507
 Alpha  occ. eigenvalues --   -0.50107  -0.47604  -0.47246  -0.46423  -0.45881
 Alpha  occ. eigenvalues --   -0.44825  -0.42663  -0.42341  -0.41468  -0.40650
 Alpha  occ. eigenvalues --   -0.38287  -0.37567  -0.35643  -0.35198  -0.32197
 Alpha  occ. eigenvalues --   -0.29455
 Alpha virt. eigenvalues --    0.00165   0.00698   0.03521   0.05278   0.06820
 Alpha virt. eigenvalues --    0.09168   0.09954   0.10612   0.11475   0.12710
 Alpha virt. eigenvalues --    0.13256   0.13859   0.14509   0.15325   0.15801

 Mulliken charges:
               1
     1  C   -0.430809
     2  C   -0.102739
     3  O   -0.273552
     4  C    0.393647
     5  O   -0.357836
     6  C   -0.416966
     7  C    0.108519
     8  C   -0.197409
     9  C   -0.150082
    10  C    0.031331
    11  Br  -0.116176
    12  C   -0.152505
    13  C   -0.185605
    14  H    0.150130
    15  H    0.151683
    16  H    0.151094
    17  H    0.149747
    18  H    0.151038
    19  H    0.186124
    20  H    0.199140
    21  H    0.174711
    22  H    0.180936
    23  H    0.181723
    24  H    0.173856
 Sum of Mulliken charges =  -0.00000

 Dipole moment (field-independent basis, Debye):
    X=              1.7587    Y=              1.0764    Z=              1.6515  Tot=              2.6418
 Quadrupole moment (field-independent basis, Debye-Ang):
   XX=            -92.2428   YY=            -84.4527   ZZ=            -90.2296
   XY=              9.3269   XZ=              5.7082   YZ=             -1.8345

 Normal termination of Gaussian 16 at Tue Sep 17 11:07:27 2024.
