 Gaussian 16, Revision C.02,

 ----------------------------------------------------------------------
 #p B3LYP/6-31G(d,p) EmpiricalDispersion=GD3BJ opt freq scf(xqc,tight)
 integral(grid=ultrafine)
 ----------------------------------------------------------------------

 ----------------------------------
 opt-freq conformers_unique/conf_af
 ----------------------------------
 Symbolic Z-matrix:
 Charge =  0 Multiplicity = 1

 SCF Done:  E(RB3LYP) =  -3109.91855929     A.U. after   15 cycles
 SCF Done:  E(RB3LYP) =  -3109.92046289     A.U. after   12 cycles
 SCF Done:  E(RB3LYP) =  -3109.91998806     A.U. after   12 cycles
 SCF Done:  E(RB3LYP) =  -3109.92071938     A.U. after   11 cycles
 SCF Done:  E(RB3LYP) =  -3109.92076901     A.U. after   11 cycles
 SCF Done:  E(RB3LYP) =  -3109.92090118     A.U. after   13 cycles
 SCF Done:  E(RB3LYP) =  -3109.92072982     A.U. after   15 cycles
 SCF Done:  E(RB3LYP) =  -3109.92116994     A.U. after   13 cycles
 SCF Done:  E(RB3LYP) =  -3109.92140214     A.U. after   14 cycles
 SCF Done:  E(RB3LYP) =  -3109.92199529     A.U. after   16 cycles
 SCF Done:  E(RB3LYP) =  -3109.92230063     A.U. after   11 cycles
 SCF Done:  E(RB3LYP) =  -3109.92235756     A.U. after   14 cycles
 SCF Done:  E(RB3LYP) =  -3109.92244752     A.U. after   11 cycles
 SCF Done:  E(RB3LYP) =  -3109.92246679     A.U. after   12 cycles
 SCF Done:  E(RB3LYP) =  -3109.92246927     A.U. after   10 cycles
 SCF Done:  E(RB3LYP) =  -3109.92247010     A.U. after   11 cycles
 SCF Done:  E(RB3LYP) =  -3109.92247025     A.U. after    8 cycles
 Optimization completed.
    -- Stationary point found.
 Normal termination of Gaussian 16 at Tue Sep 17 10:01:12 2024.

 ----------------------------------------------------------------------
 #P Geom=AllCheck Guess=TCheck SCRF=Check GenChk RB3LYP/6-31G(d,p) Freq
 ----------------------------------------------------------------------

 Structure from the checkpoint file:  "smiles_00069_conf_5.chk"
 ----------------------------------
 opt-freq conformers_unique/conf_af
 ----------------------------------
 Charge =  0 Multiplicity = 1

 SCF Done:  E(RB3LYP) =  -3109.92247025     A.U. after    1 cycles

                      1                      2                      3
                      A                      A                      A
 Frequencies --     14.7585                30.8586                45.8149
 Red. masses --      5.0256                 4.0668                 3.9082
 Frc consts  --      0.0006                 0.0023                 0.0048
 IR Inten    --      1.0817                 0.3950                 0.1113

                      4                      5                      6
                      A                      A                      A
 Frequencies --     85.0688               111.3903               135.6978
 Red. masses --      4.7773                 4.0545                 7.5380
 Frc consts  --      0.0204                 0.0296                 0.0818
 IR Inten    --      1.9003                 0.4076                 1.3085

                      7                      8                      9
                      A                      A                      A
 Frequencies --    196.2506               227.6869               276.2270
 Red. masses --      3.4510                 1.4324                 5.9496
 Frc consts  --      0.0783                 0.0438                 0.2675
 IR Inten    --      0.8309                 2.5193                 1.9036

                     10                     11                     12
                      A                      A                      A
 Frequencies --    308.2950               318.3032               352.2036
 Red. masses --      4.1936                 3.0893                 3.6179
 Frc consts  --      0.2348                 0.1844                 0.2644
 IR Inten    --      5.8547                 3.5450                 5.9562

                     13                     14                     15
                      A                      A                      A
 Frequencies --    394.1263               422.4811               466.2616
 Red. masses --      2.8988                 2.9907                 2.8227
 Frc consts  --      0.2653                 0.3145                 0.3615
 IR Inten    --     10.2718                 0.0272                 1.8708

                     16                     17                     18
                      A                      A                      A
 Frequencies --    507.6507               579.8484               644.6010
 Red. masses --      3.1228                 5.7289                 6.0707
 Frc consts  --      0.4742                 1.1349                 1.4862
 IR Inten    --     11.0184                 7.7626                 1.9569

                     19                     20                     21
                      A                      A                      A
 Frequencies --    662.0005               719.8128               770.2696
 Red. masses --      4.3176                 4.1241                 3.2921
 Frc consts  --      1.1148                 1.2590                 1.1508
 IR Inten    --      6.0592                 2.7696                17.3783

                     22                     23                     24
                      A                      A                      A
 Frequencies --    799.7176               826.3394               851.0047
 Red. masses --      1.4850                 1.9037                 1.2939
 Frc consts  --      0.5596                 0.7659                 0.5521
 IR Inten    --     17.0636                19.4128                 1.1542

                     25                     26                     27
                      A                      A                      A
 Frequencies --    854.5984               878.4083               939.3887
 Red. masses --      2.2263                 2.7870                 2.7163
 Frc consts  --      0.9580                 1.2670                 1.4123
 IR Inten    --      4.9634                10.3922                 3.4267

                     28                     29                     30
                      A                      A                      A
 Frequencies --    964.8942               974.7758               987.8029
 Red. masses --      1.8075                 1.5028                 1.3682
 Frc consts  --      0.9915                 0.8413                 0.7866
 IR Inten    --      2.3944                 2.1649                 0.0120

                     31                     32                     33
                      A                      A                      A
 Frequencies --   1030.8660              1056.9274              1096.2404
 Red. masses --      4.9010                 3.8694                 2.5957
 Frc consts  --      3.0686                 2.5467                 1.8379
 IR Inten    --     46.2155                52.8575                28.8749

                     34                     35                     36
                      A                      A                      A
 Frequencies --   1125.6680              1134.1611              1162.9291
 Red. masses --      1.9382                 1.4318                 1.3852
 Frc consts  --      1.4470                 1.0851                 1.1038
 IR Inten    --     16.1417                25.7348               133.1238

                     37                     38                     39
                      A                      A                      A
 Frequencies --   1203.1408              1211.5161              1221.1669
 Red. masses --      1.7275                 1.1310                 2.6912
 Frc consts  --      1.4733                 0.9781                 2.3646
 IR Inten    --      7.2485                 1.3792                 7.3816

                     40                     41                     42
                      A                      A                      A
 Frequencies --   1286.2548              1321.7666              1334.7594
 Red. masses --      1.9590                 2.0214                 1.7765
 Frc consts  --      1.9095                 2.0807                 1.8647
 IR Inten    --    212.5358                95.2455                 2.0019

                     43                     44                     45
                      A                      A                      A
 Frequencies --   1337.0885              1364.1143              1409.0913
 Red. masses --      1.1844                 2.3340                 1.3137
 Frc consts  --      1.2476                 2.5589                 1.5369
 IR Inten    --     37.7959                59.1390                20.8454

                     46                     47                     48
                      A                      A                      A
 Frequencies --   1433.3336              1450.2561              1487.8047
 Red. masses --      1.3730                 2.5785                 1.1046
 Frc consts  --      1.6620                 3.1953                 1.4406
 IR Inten    --      6.7459                15.3179                 7.1872

                     49                     50                     51
                      A                      A                      A
 Frequencies --   1500.1521              1503.6601              1523.2130
 Red. masses --      1.0510                 1.0841                 1.0574
 Frc consts  --      1.3935                 1.4442                 1.4454
 IR Inten    --      9.3210                 6.4633                 6.2688

                     52                     53                     54
                      A                      A                      A
 Frequencies --   1532.9045              1629.8887              1651.1926
 Red. masses --      2.3207                 6.8940                 5.7136
 Frc consts  --      3.2129                10.7904                 9.1782
 IR Inten    --     61.1475                 0.5010                 5.0951

                     55                     56                     57
                      A                      A                      A
 Frequencies --   1814.0380              3056.9720              3076.2277
 Red. masses --     10.8416                 1.0360                 1.0609
 Frc consts  --     21.0202                 5.7041                 5.9151
 IR Inten    --    174.7401                17.7966                10.5854

                     58                     59                     60
                      A                      A                      A
 Frequencies --   3086.8539              3127.0292              3137.3685
 Red. masses --      1.0586                 1.1024                 1.1050
 Frc consts  --      5.9433                 6.3509                 6.4086
 IR Inten    --     22.6343                19.6063                 6.8921

                     61                     62                     63
                      A                      A                      A
 Frequencies --   3139.9185              3156.9345              3188.8620
 Red. masses --      1.1042                 1.1069                 1.0895
 Frc consts  --      6.4140                 6.4997                 6.5275
 IR Inten    --      5.7881                25.3258                 9.7642

                     64                     65                     66
                      A                      A                      A
 Frequencies --   3203.4798              3221.6754              3223.3803
 Red. masses --      1.0891                 1.0937                 1.0948
 Frc consts  --      6.5852                 6.6881                 6.7023
 IR Inten    --      0.8849                 4.1486                 0.4446

 - Thermochemistry -
 -------------------
 Temperature   298.150 Kelvin.  Pressure   1.00000 Atm.
 Atom     1 has atomic number  6 and mass  12.00000

 Molecular mass:   241.99424 amu.
 Principal axes and moments of inertia in atomic units:
                           1         2         3
     Eigenvalues --   984.616829664.053419688.87435
           X            0.99988   0.00779   0.01369
           Y           -0.00689   0.99787  -0.06493
           Z           -0.01417   0.06483   0.99780
 This molecule is an asymmetric top.
 Rotational symmetry number  1.
 Warning -- assumption of classical behavior for rotation
           may cause significant error
 Rotational temperatures (Kelvin)      0.08797     0.00896     0.00894
 Rotational constants (GHZ):           1.83294     0.18675     0.18627
 Zero-point vibrational energy     501159.8 (Joules/Mol)
                                  119.78006 (Kcal/Mol)
 Warning -- explicit consideration of  17 degrees of freedom as
           vibrations may cause significant error
 Vibrational temperatures:     21.23    44.40    65.92   122.40   160.27
          (Kelvin)            195.24   282.36   327.59   397.43   443.57
                              457.97   506.74   567.06   607.86   670.85
                              730.40   834.27   927.44   952.47  1035.65
                             1108.25  1150.62  1188.92  1224.41  1229.58
                             1263.83  1351.57  1388.27  1402.48  1421.23
                             1483.19  1520.68  1577.25  1619.59  1631.80
                             1673.20  1731.05  1743.10  1756.99  1850.63
                             1901.73  1920.42  1923.77  1962.66  2027.37
                             2062.25  2086.60  2140.62  2158.38  2163.43
                             2191.56  2205.51  2345.05  2375.70  2610.00
                             4398.30  4426.01  4441.29  4499.10  4513.97
                             4517.64  4542.12  4588.06  4609.09  4635.27
                             4637.73

 Zero-point correction=                           0.190882 (Hartree/Particle)
 Thermal correction to Energy=                    0.203698
 Thermal correction to Enthalpy=                  0.204642
 Thermal correction to Gibbs Free Energy=         0.147802
 Sum of electronic and zero-point Energies=          -3109.731589
 Sum of electronic and thermal Energies=             -3109.718772
 Sum of electronic and thermal Enthalpies=           -3109.717828
 Sum of electronic and thermal Free Energies=        -3109.774669

                     E (Thermal)             CV                S
                      KCal/Mol        Cal/Mol-Kelvin    Cal/Mol-Kelvin
 Total                  127.823             46.135            119.631
 Electronic               0.000              0.000              0.000
 Translational            0.889              2.981             42.352
 Rotational               0.889              2.981             32.889
 Vibrational            126.045             40.174             44.391
 Vibration     1          0.593              1.986              7.238
 Vibration     2          0.594              1.984              5.773
 Vibration     3          0.595              1.979              4.990
 Vibration     4          0.601              1.960              3.770
 Vibration     5          0.607              1.940              3.245
 Vibration     6          0.614              1.918              2.864
 Vibration     7          0.636              1.845              2.168
 Vibration     8          0.651              1.799              1.897
 Vibration     9          0.678              1.717              1.557
 Vibration    10          0.698              1.658              1.371
 Vibration    11          0.705              1.639              1.319
 Vibration    12          0.729              1.571              1.156
 Vibration    13          0.761              1.483              0.984
 Vibration    14          0.785              1.421              0.884
 Vibration    15          0.824              1.325              0.748
 Vibration    16          0.863              1.233              0.639
 Vibration    17          0.936              1.075              0.486

 Optimization completed.
    -- Stationary point found.
 Normal termination of Gaussian 16 at Tue Sep 17 10:02:51 2024.

 ----------------------------------------------------------------------
 #p M062X/def2tzvp geom=check guess=read scf(xqc,tight) integral(grid=u
 ltrafine) scrf(SMD, solvent=1,4-Dioxane) polar prop=efg volume
 ----------------------------------------------------------------------

 ---
 spe
 ---
 Structure from the checkpoint file:  "smiles_00069_conf_5.chk"
 Charge =  0 Multiplicity = 1

 SCF Done:  E(RM062X) =  -3112.33673934     A.U. after   11 cycles

  Exact polarizability:     215.435      -8.012     146.018     -13.936     -12.096     122.843
 Approx polarizability:     201.721      -8.634     177.912     -17.600     -18.945     143.799

 Normal termination of Gaussian 16 at Tue Sep 17 10:48:59 2024.
 Gaussian 16:  ES64L-G16RevC.02  7-Dec-2021

 ----------------------------------------------------------------------
 #p M062X/def2tzvp geom=check guess=read scf(xqc,tight) integral(grid=u
 ltrafine) scrf(SMD, solvent=1,4-Dioxane) nmr=giao
 ----------------------------------------------------------------------

 ---
 spe
 ---
 Structure from the checkpoint file:  "smiles_00069_conf_5.chk"
 Charge =  0 Multiplicity = 1

                         Standard orientation:
 ---------------------------------------------------------------------
 Center     Atomic      Atomic             Coordinates (Angstroms)
 Number     Number       Type             X           Y           Z
 ---------------------------------------------------------------------
      1          6           0       -5.683764   -0.370039   -0.816113
      2          6           0       -4.268760   -0.380925   -1.368892
      3          8           0       -3.400605    0.491283   -0.602411
      4          6           0       -2.877323   -0.031927    0.523238
      5          8           0       -3.095367   -1.156628    0.923197
      6          6           0       -1.932316    0.946697    1.197055
      7          6           0       -0.497398    0.648625    0.803297
      8          6           0        0.270182    1.596475    0.122235
      9          6           0        1.588797    1.324599   -0.242714
     10          6           0        2.134616    0.085343    0.076650
     11         35           0        3.940463   -0.299980   -0.416820
     12          6           0        1.388310   -0.880837    0.748689
     13          6           0        0.074214   -0.593097    1.107872
     14          1           0       -6.337073   -0.972785   -1.454973
     15          1           0       -6.079389    0.649054   -0.783163
     16          1           0       -5.702542   -0.792382    0.190862
     17          1           0       -4.227547    0.022400   -2.382679
     18          1           0       -3.847756   -1.388739   -1.358961
     19          1           0       -2.198054    1.968246    0.920056
     20          1           0       -2.061495    0.827126    2.276780
     21          1           0       -0.162454    2.560816   -0.127482
     22          1           0        2.182229    2.063168   -0.768517
     23          1           0        1.829419   -1.841854    0.985461
     24          1           0       -0.523114   -1.342483    1.617108
 ---------------------------------------------------------------------

 SCF Done:  E(RM062X) =  -3112.33673934     A.U. after    1 cycles

      1  C    Isotropic =   171.0563   Anisotropy =    25.2133

      2  C    Isotropic =   119.4748   Anisotropy =    73.0738

      3  O    Isotropic =    88.8111   Anisotropy =   169.4592

      4  C    Isotropic =    -9.2527   Anisotropy =   121.6986

      5  O    Isotropic =  -143.5658   Anisotropy =   668.2945

      6  C    Isotropic =   139.2535   Anisotropy =    22.9482

      7  C    Isotropic =    26.7002   Anisotropy =   221.6216

      8  C    Isotropic =    32.5797   Anisotropy =   188.4578

      9  C    Isotropic =    31.1790   Anisotropy =   183.1893

     10  C    Isotropic =    25.7886   Anisotropy =   140.9245

     11  Br   Isotropic =  2090.4997   Anisotropy =  1282.1422

     12  C    Isotropic =    31.1303   Anisotropy =   185.9358

     13  C    Isotropic =    32.4322   Anisotropy =   209.5300

     14  H    Isotropic =    30.9591   Anisotropy =    10.6827

     15  H    Isotropic =    30.7928   Anisotropy =     8.3436

     16  H    Isotropic =    30.2832   Anisotropy =     6.1753

     17  H    Isotropic =    28.2314   Anisotropy =     6.6955

     18  H    Isotropic =    27.3407   Anisotropy =     4.5692

     19  H    Isotropic =    28.3618   Anisotropy =     3.8173

     20  H    Isotropic =    28.1643   Anisotropy =     5.1572

     21  H    Isotropic =    23.8488   Anisotropy =     7.9355

     22  H    Isotropic =    23.6940   Anisotropy =    10.2964

     23  H    Isotropic =    23.6753   Anisotropy =    10.5140

     24  H    Isotropic =    23.2473   Anisotropy =     9.5856

 The electronic state is 1-A.
 Alpha  occ. eigenvalues -- -485.37475 -63.35956 -57.17899 -57.17665 -57.17659
 Alpha  occ. eigenvalues --  -19.67366 -19.61959 -10.67790 -10.60347 -10.59289
 Alpha  occ. eigenvalues --  -10.56660 -10.55791 -10.55740 -10.55688 -10.55476
 Alpha  occ. eigenvalues --  -10.55205 -10.52835  -9.02601  -6.85004  -6.84135
 Alpha  occ. eigenvalues --   -6.84116  -2.88380  -2.88065  -2.88042  -2.87233
 Alpha  occ. eigenvalues --   -2.87232  -1.23260  -1.14171  -0.98453  -0.91821
 Alpha  occ. eigenvalues --   -0.87873  -0.85649  -0.84970  -0.79170  -0.73606
 Alpha  occ. eigenvalues --   -0.70738  -0.67209  -0.64159  -0.59690  -0.58157
 Alpha  occ. eigenvalues --   -0.57418  -0.54577  -0.54032  -0.53057  -0.50853
 Alpha  occ. eigenvalues --   -0.50018  -0.49203  -0.47091  -0.46532  -0.45795
 Alpha  occ. eigenvalues --   -0.44435  -0.43469  -0.41772  -0.41147  -0.40430
 Alpha  occ. eigenvalues --   -0.37808  -0.37539  -0.35614  -0.35121  -0.32117
 Alpha  occ. eigenvalues --   -0.29439
 Alpha virt. eigenvalues --    0.00341   0.00748   0.03620   0.04949   0.07856
 Alpha virt. eigenvalues --    0.09482   0.10451   0.10879   0.11451   0.12574
 Alpha virt. eigenvalues --    0.13172   0.14016   0.14854   0.15035   0.16149

 Mulliken charges:
               1
     1  C   -0.443584
     2  C   -0.105375
     3  O   -0.272721
     4  C    0.395682
     5  O   -0.372852
     6  C   -0.371465
     7  C    0.084482
     8  C   -0.188640
     9  C   -0.155727
    10  C    0.032173
    11  Br  -0.117551
    12  C   -0.155375
    13  C   -0.187853
    14  H    0.151656
    15  H    0.149536
    16  H    0.165396
    17  H    0.150808
    18  H    0.156902
    19  H    0.173027
    20  H    0.191722
    21  H    0.168690
    22  H    0.179997
    23  H    0.181739
    24  H    0.189333
 Sum of Mulliken charges =  -0.00000

 Dipole moment (field-independent basis, Debye):
    X=             -2.5014    Y=              1.8617    Z=             -0.7079  Tot=              3.1976
 Quadrupole moment (field-independent basis, Debye-Ang):
   XX=            -87.8239   YY=            -86.3717   ZZ=            -88.1196
   XY=             -3.4575   XZ=              5.5570   YZ=              1.2591

 Normal termination of Gaussian 16 at Tue Sep 17 11:06:44 2024.
