 Gaussian 16, Revision C.02,

 ----------------------------------------------------------------------
 #p B3LYP/6-31G(d,p) EmpiricalDispersion=GD3BJ opt freq scf(xqc,tight)
 integral(grid=ultrafine)
 ----------------------------------------------------------------------

 ----------------------------------
 opt-freq conformers_unique/conf_aa
 ----------------------------------
 Symbolic Z-matrix:
 Charge =  0 Multiplicity = 1

 SCF Done:  E(RB3LYP) =  -1028.65656158     A.U. after   15 cycles
 SCF Done:  E(RB3LYP) =  -1028.65828516     A.U. after   12 cycles
 SCF Done:  E(RB3LYP) =  -1028.65845428     A.U. after   10 cycles
 SCF Done:  E(RB3LYP) =  -1028.65847695     A.U. after   10 cycles
 SCF Done:  E(RB3LYP) =  -1028.65847767     A.U. after    9 cycles
 SCF Done:  E(RB3LYP) =  -1028.65847800     A.U. after    8 cycles
 Optimization completed.
    -- Stationary point found.
 Normal termination of Gaussian 16 at Tue Sep 17 09:43:59 2024.

 ----------------------------------------------------------------------
 #P Geom=AllCheck Guess=TCheck SCRF=Check GenChk RB3LYP/6-31G(d,p) Freq
 ----------------------------------------------------------------------

 Structure from the checkpoint file:  "smiles_00045_conf_0.chk"
 ----------------------------------
 opt-freq conformers_unique/conf_aa
 ----------------------------------
 Charge =  0 Multiplicity = 1

 SCF Done:  E(RB3LYP) =  -1028.65847800     A.U. after    1 cycles

                      1                      2                      3
                      A                      A                      A
 Frequencies --    220.0209               275.8615               449.5278
 Red. masses --      7.0161                14.4650                16.4313
 Frc consts  --      0.2001                 0.6486                 1.9563
 IR Inten    --      1.4166                 1.1609                 4.6091

                      4                      5                      6
                      A                      A                      A
 Frequencies --    498.4661               597.7120               644.5540
 Red. masses --      5.6850                 4.2849                13.9576
 Frc consts  --      0.8322                 0.9019                 3.4165
 IR Inten    --      0.9913                14.9443                 0.8490

                      7                      8                      9
                      A                      A                      A
 Frequencies --    730.8288               742.9256               877.7309
 Red. masses --      1.2752                 8.6374                 4.7331
 Frc consts  --      0.4013                 2.8088                 2.1484
 IR Inten    --     34.3024                 8.6161                 4.0042

                     10                     11                     12
                      A                      A                      A
 Frequencies --    896.6160              1041.2127              1086.8782
 Red. masses --      1.3107                10.1822                 1.4525
 Frc consts  --      0.6208                 6.5039                 1.0109
 IR Inten    --      1.4047               173.3570                 4.7149

                     13                     14                     15
                      A                      A                      A
 Frequencies --   1199.6942              1344.3122              1473.4537
 Red. masses --      1.8550                 1.9452                 8.0259
 Frc consts  --      1.5731                 2.0711                10.2664
 IR Inten    --      1.9764                 5.6077                71.1588

                     16                     17                     18
                      A                      A                      A
 Frequencies --   1553.0296              3237.0885              3278.8349
 Red. masses --      5.6318                 1.0913                 1.0988
 Frc consts  --      8.0031                 6.7378                 6.9600
 IR Inten    --     50.5267                 4.5187                 1.4378

 - Thermochemistry -
 -------------------
 Temperature   298.150 Kelvin.  Pressure   1.00000 Atm.
 Atom     1 has atomic number 17 and mass  34.96885

 Molecular mass:   118.95965 amu.
 Principal axes and moments of inertia in atomic units:
                           1         2         3
     Eigenvalues --   334.08207 941.633951275.71602
           X            0.99983   0.01821  -0.00007
           Y           -0.01821   0.99983   0.00003
           Z            0.00007  -0.00003   1.00000
 This molecule is an asymmetric top.
 Rotational symmetry number  1.
 Rotational temperatures (Kelvin)      0.25926     0.09198     0.06789
 Rotational constants (GHZ):           5.40209     1.91661     1.41469
 Zero-point vibrational energy     120516.3 (Joules/Mol)
                                   28.80408 (Kcal/Mol)
 Warning -- explicit consideration of   5 degrees of freedom as
           vibrations may cause significant error
 Vibrational temperatures:    316.56   396.90   646.77   717.18   859.97
          (Kelvin)            927.37  1051.50  1068.90  1262.86  1290.03
                             1498.07  1563.78  1726.09  1934.17  2119.97
                             2234.46  4657.45  4717.51

 Zero-point correction=                           0.045902 (Hartree/Particle)
 Thermal correction to Energy=                    0.050908
 Thermal correction to Enthalpy=                  0.051852
 Thermal correction to Gibbs Free Energy=         0.016413
 Sum of electronic and zero-point Energies=          -1028.612576
 Sum of electronic and thermal Energies=             -1028.607570
 Sum of electronic and thermal Enthalpies=           -1028.606626
 Sum of electronic and thermal Free Energies=        -1028.642065

                     E (Thermal)             CV                S
                      KCal/Mol        Cal/Mol-Kelvin    Cal/Mol-Kelvin
 Total                   31.945             17.741             74.588
 Electronic               0.000              0.000              0.000
 Translational            0.889              2.981             40.236
 Rotational               0.889              2.981             27.486
 Vibrational             30.168             11.779              6.866
 Vibration     1          0.647              1.811              1.959
 Vibration     2          0.678              1.718              1.559
 Vibration     3          0.808              1.362              0.797
 Vibration     4          0.854              1.253              0.662
 Vibration     5          0.956              1.037              0.454

 Optimization completed.
    -- Stationary point found.
 Normal termination of Gaussian 16 at Tue Sep 17 09:44:11 2024.

 ----------------------------------------------------------------------
 #p M062X/def2tzvp geom=check guess=read scf(xqc,tight) integral(grid=u
 ltrafine) scrf(SMD, solvent=1,4-Dioxane) polar prop=efg volume
 ----------------------------------------------------------------------

 ---
 spe
 ---
 Structure from the checkpoint file:  "smiles_00045_conf_0.chk"
 Charge =  0 Multiplicity = 1

 SCF Done:  E(RM062X) =  -1028.64354536     A.U. after   12 cycles

  Exact polarizability:     102.876       1.291      82.479       0.004      -0.001      45.383
 Approx polarizability:     115.819       0.355     107.825       0.004      -0.001      57.938

 Normal termination of Gaussian 16 at Tue Sep 17 09:47:08 2024.
 Gaussian 16:  ES64L-G16RevC.02  7-Dec-2021

 ----------------------------------------------------------------------
 #p M062X/def2tzvp geom=check guess=read scf(xqc,tight) integral(grid=u
 ltrafine) scrf(SMD, solvent=1,4-Dioxane) nmr=giao
 ----------------------------------------------------------------------

 ---
 spe
 ---
 Structure from the checkpoint file:  "smiles_00045_conf_0.chk"
 Charge =  0 Multiplicity = 1

                         Standard orientation:
 ---------------------------------------------------------------------
 Center     Atomic      Atomic             Coordinates (Angstroms)
 Number     Number       Type             X           Y           Z
 ---------------------------------------------------------------------
      1         17           0       -2.115972    0.047255   -0.000151
      2          6           0       -0.394901    0.218294   -0.000117
      3          7           0        0.214461    1.356955    0.000008
      4          6           0        1.580781    1.161141    0.000100
      5          6           0        2.002147   -0.135671    0.000083
      6         16           0        0.631116   -1.204477    0.000113
      7          1           0        2.232188    2.025902    0.000169
      8          1           0        3.012091   -0.518863    0.000148
 ---------------------------------------------------------------------

 SCF Done:  E(RM062X) =  -1028.64354536     A.U. after    1 cycles

      1  Cl   Isotropic =   625.8733   Anisotropy =   577.3529

      2  C    Isotropic =    -2.5543   Anisotropy =    89.1197

      3  N    Isotropic =  -132.0322   Anisotropy =   476.5413

      4  C    Isotropic =    24.9778   Anisotropy =   134.3530

      5  C    Isotropic =    38.6774   Anisotropy =   140.2168

      6  S    Isotropic =   132.4018   Anisotropy =   259.8324

      7  H    Isotropic =    23.6896   Anisotropy =     5.5786

      8  H    Isotropic =    23.8252   Anisotropy =     3.7833

 The electronic state is 1-A.
 Alpha  occ. eigenvalues -- -102.66935 -89.95774 -14.77215 -10.66850 -10.58702
 Alpha  occ. eigenvalues --  -10.58564  -9.83163  -8.31506  -7.55377  -7.54833
 Alpha  occ. eigenvalues --   -7.54817  -6.23404  -6.23219  -6.23065  -1.09907
 Alpha  occ. eigenvalues --   -0.97174  -0.90767  -0.82698  -0.68674  -0.63828
 Alpha  occ. eigenvalues --   -0.59283  -0.51687  -0.51564  -0.49406  -0.43951
 Alpha  occ. eigenvalues --   -0.42094  -0.39836  -0.36702  -0.35636  -0.30678
 Alpha virt. eigenvalues --   -0.00954   0.02995   0.06121   0.06299   0.10261
 Alpha virt. eigenvalues --    0.12403   0.12502   0.14212   0.19063   0.19913
 Alpha virt. eigenvalues --    0.21939   0.23371   0.25026   0.28462   0.28472

 Mulliken charges:
               1
     1  Cl  -0.033392
     2  C    0.064037
     3  N   -0.220421
     4  C   -0.084796
     5  C   -0.189129
     6  S    0.092451
     7  H    0.176594
     8  H    0.194656
 Sum of Mulliken charges =  -0.00000

 Dipole moment (field-independent basis, Debye):
    X=              2.5172    Y=             -1.4366    Z=              0.0003  Tot=              2.8983
 Quadrupole moment (field-independent basis, Debye-Ang):
   XX=            -40.5465   YY=            -49.1204   ZZ=            -49.9130
   XY=              1.3084   XZ=              0.0006   YZ=             -0.0001

 Normal termination of Gaussian 16 at Tue Sep 17 09:48:18 2024.
