 Gaussian 16, Revision C.02,

 ----------------------------------------------------------------------
 #p B3LYP/6-31G(d,p) EmpiricalDispersion=GD3BJ opt freq scf(xqc,tight)
 integral(grid=ultrafine)
 ----------------------------------------------------------------------

 ----------------------------------
 opt-freq conformers_unique/conf_ad
 ----------------------------------
 Symbolic Z-matrix:
 Charge =  0 Multiplicity = 1

 SCF Done:  E(RB3LYP) =  -860.555337017     A.U. after   15 cycles
 SCF Done:  E(RB3LYP) =  -860.557431168     A.U. after   13 cycles
 SCF Done:  E(RB3LYP) =  -860.557618964     A.U. after   12 cycles
 SCF Done:  E(RB3LYP) =  -860.557582707     A.U. after   13 cycles
 SCF Done:  E(RB3LYP) =  -860.557986573     A.U. after   13 cycles
 SCF Done:  E(RB3LYP) =  -860.558241215     A.U. after   16 cycles
 SCF Done:  E(RB3LYP) =  -860.559504805     A.U. after   13 cycles
 SCF Done:  E(RB3LYP) =  -860.562936196     A.U. after   12 cycles
 SCF Done:  E(RB3LYP) =  -860.565726898     A.U. after   16 cycles
 SCF Done:  E(RB3LYP) =  -860.567637210     A.U. after   15 cycles
 SCF Done:  E(RB3LYP) =  -860.568196719     A.U. after   13 cycles
 SCF Done:  E(RB3LYP) =  -860.568230624     A.U. after   11 cycles
 SCF Done:  E(RB3LYP) =  -860.568235694     A.U. after   12 cycles
 SCF Done:  E(RB3LYP) =  -860.568239553     A.U. after   10 cycles
 SCF Done:  E(RB3LYP) =  -860.568239793     A.U. after    7 cycles
 SCF Done:  E(RB3LYP) =  -860.568239937     A.U. after    8 cycles
 SCF Done:  E(RB3LYP) =  -860.568239969     A.U. after    7 cycles
 Optimization completed.
    -- Stationary point found.
 Normal termination of Gaussian 16 at Tue Sep 17 09:54:33 2024.

 ----------------------------------------------------------------------
 #P Geom=AllCheck Guess=TCheck SCRF=Check GenChk RB3LYP/6-31G(d,p) Freq
 ----------------------------------------------------------------------

 Structure from the checkpoint file:  "smiles_00113_conf_3.chk"
 ----------------------------------
 opt-freq conformers_unique/conf_ad
 ----------------------------------
 Charge =  0 Multiplicity = 1

 SCF Done:  E(RB3LYP) =  -860.568239969     A.U. after    1 cycles

                      1                      2                      3
                      A                      A                      A
 Frequencies --     61.6988                84.3558               167.2963
 Red. masses --      4.0004                 9.7461                 1.0321
 Frc consts  --      0.0090                 0.0409                 0.0170
 IR Inten    --      0.5251                 1.2259                 0.1828

                      4                      5                      6
                      A                      A                      A
 Frequencies --    173.0585               250.6211               308.5058
 Red. masses --      5.8364                 6.3650                 6.6908
 Frc consts  --      0.1030                 0.2356                 0.3752
 IR Inten    --      3.1283                 0.5492                 2.6601

                      7                      8                      9
                      A                      A                      A
 Frequencies --    323.8482               422.3916               451.4710
 Red. masses --      6.8895                 3.5596                 4.1314
 Frc consts  --      0.4257                 0.3742                 0.4961
 IR Inten    --      0.6264                 4.2953                 6.8193

                     10                     11                     12
                      A                      A                      A
 Frequencies --    482.0199               523.7282               604.8005
 Red. masses --      3.2593                 7.5457                 2.5248
 Frc consts  --      0.4462                 1.2194                 0.5441
 IR Inten    --      0.4965                33.8849                 3.4428

                     13                     14                     15
                      A                      A                      A
 Frequencies --    627.7432               643.6314               755.8831
 Red. masses --      4.2585                 8.1242                 5.1813
 Frc consts  --      0.9887                 1.9829                 1.7442
 IR Inten    --      3.7976                 2.2173                 4.9623

                     16                     17                     18
                      A                      A                      A
 Frequencies --    801.1000               845.6533               963.5279
 Red. masses --      6.8970                 1.3642                 2.2903
 Frc consts  --      2.6079                 0.5748                 1.2528
 IR Inten    --     30.6703                23.3767                45.4704

                     19                     20                     21
                      A                      A                      A
 Frequencies --    979.2006               990.9963              1035.0280
 Red. masses --      1.3496                 1.3677                 3.2313
 Frc consts  --      0.7624                 0.7914                 2.0395
 IR Inten    --      3.3384                 0.3687                16.1064

                     22                     23                     24
                      A                      A                      A
 Frequencies --   1049.0594              1104.4356              1137.9284
 Red. masses --      1.8933                 2.8013                 2.5917
 Frc consts  --      1.2276                 2.0132                 1.9773
 IR Inten    --      1.1748                 3.5178               174.5107

                     25                     26                     27
                      A                      A                      A
 Frequencies --   1176.0953              1290.1856              1313.0682
 Red. masses --      1.4702                 2.9448                 1.6323
 Frc consts  --      1.1982                 2.8881                 1.6581
 IR Inten    --     14.6706               216.3523                 4.2176

                     28                     29                     30
                      A                      A                      A
 Frequencies --   1320.7401              1391.6801              1420.5417
 Red. masses --      5.4185                 1.4576                 2.7229
 Frc consts  --      5.5688                 1.6633                 3.2373
 IR Inten    --      0.4988                35.2131                26.8804

                     31                     32                     33
                      A                      A                      A
 Frequencies --   1481.4274              1491.6859              1496.5448
 Red. masses --      1.0586                 1.0475                 2.4880
 Frc consts  --      1.3688                 1.3732                 3.2831
 IR Inten    --     10.0819                10.2977                55.6163

                     34                     35                     36
                      A                      A                      A
 Frequencies --   1607.7967              1637.2079              1786.6033
 Red. masses --      6.8540                 5.6503                10.9123
 Frc consts  --     10.4390                 8.9234                20.5222
 IR Inten    --     54.8637               169.3314               162.8682

                     37                     38                     39
                      A                      A                      A
 Frequencies --   3048.7919              3111.7721              3173.3203
 Red. masses --      1.0382                 1.0999                 1.1016
 Frc consts  --      5.6858                 6.2752                 6.5356
 IR Inten    --      2.4686                 7.9328                 8.2739

                     40                     41                     42
                      A                      A                      A
 Frequencies --   3210.2199              3211.0432              3236.2513
 Red. masses --      1.0901                 1.0907                 1.0954
 Frc consts  --      6.6187                 6.6260                 6.7592
 IR Inten    --      2.7386                 2.3106                 1.1871

 - Thermochemistry -
 -------------------
 Temperature   298.150 Kelvin.  Pressure   1.00000 Atm.
 Atom     1 has atomic number  6 and mass  12.00000

 Molecular mass:   155.01379 amu.
 Principal axes and moments of inertia in atomic units:
                           1         2         3
     Eigenvalues --   480.468133198.125023667.36975
           X            0.99988   0.01538   0.00000
           Y           -0.01538   0.99988  -0.00000
           Z           -0.00000   0.00000   1.00000
 This molecule is an asymmetric top.
 Rotational symmetry number  1.
 Warning -- assumption of classical behavior for rotation
           may cause significant error
 Rotational temperatures (Kelvin)      0.18027     0.02708     0.02362
 Rotational constants (GHZ):           3.75621     0.56431     0.49211
 Zero-point vibrational energy     306201.9 (Joules/Mol)
                                   73.18401 (Kcal/Mol)
 Warning -- explicit consideration of  12 degrees of freedom as
           vibrations may cause significant error
 Vibrational temperatures:     88.77   121.37   240.70   248.99   360.59
          (Kelvin)            443.87   465.95   607.73   649.57   693.52
                              753.53   870.17   903.18   926.04  1087.55
                             1152.60  1216.71  1386.30  1408.85  1425.82
                             1489.17  1509.36  1589.04  1637.23  1692.14
                             1856.29  1889.21  1900.25  2002.32  2043.84
                             2131.44  2146.20  2153.19  2313.26  2355.58
                             2570.52  4386.53  4477.15  4565.70  4618.79
                             4619.97  4656.24

 Zero-point correction=                           0.116626 (Hartree/Particle)
 Thermal correction to Energy=                    0.125528
 Thermal correction to Enthalpy=                  0.126472
 Thermal correction to Gibbs Free Energy=         0.081711
 Sum of electronic and zero-point Energies=           -860.451614
 Sum of electronic and thermal Energies=              -860.442712
 Sum of electronic and thermal Enthalpies=            -860.441768
 Sum of electronic and thermal Free Energies=         -860.486529

                     E (Thermal)             CV                S
                      KCal/Mol        Cal/Mol-Kelvin    Cal/Mol-Kelvin
 Total                   78.770             32.473             94.207
 Electronic               0.000              0.000              0.000
 Translational            0.889              2.981             41.025
 Rotational               0.889              2.981             30.112
 Vibrational             76.993             26.512             23.071
 Vibration     1          0.597              1.973              4.402
 Vibration     2          0.601              1.960              3.787
 Vibration     3          0.624              1.883              2.466
 Vibration     4          0.627              1.876              2.402
 Vibration     5          0.663              1.762              1.726
 Vibration     6          0.698              1.658              1.370
 Vibration     7          0.708              1.628              1.291
 Vibration     8          0.785              1.422              0.884
 Vibration     9          0.810              1.358              0.791
 Vibration    10          0.838              1.290              0.705
 Vibration    11          0.879              1.197              0.601
 Vibration    12          0.963              1.022              0.441

 Optimization completed.
    -- Stationary point found.
 Normal termination of Gaussian 16 at Tue Sep 17 09:55:11 2024.

 ----------------------------------------------------------------------
 #p M062X/def2tzvp geom=check guess=read scf(xqc,tight) integral(grid=u
 ltrafine) scrf(SMD, solvent=1,4-Dioxane) polar prop=efg volume
 ----------------------------------------------------------------------

 ---
 spe
 ---
 Structure from the checkpoint file:  "smiles_00113_conf_3.chk"
 Charge =  0 Multiplicity = 1

 SCF Done:  E(RM062X) =  -860.524026107     A.U. after   12 cycles

  Exact polarizability:     171.685      -3.399     115.418      -0.001      -0.001      64.968
 Approx polarizability:     169.662      -8.026     139.744      -0.002      -0.001      80.904

 Normal termination of Gaussian 16 at Tue Sep 17 10:14:18 2024.
 Gaussian 16:  ES64L-G16RevC.02  7-Dec-2021

 ----------------------------------------------------------------------
 #p M062X/def2tzvp geom=check guess=read scf(xqc,tight) integral(grid=u
 ltrafine) scrf(SMD, solvent=1,4-Dioxane) nmr=giao
 ----------------------------------------------------------------------

 ---
 spe
 ---
 Structure from the checkpoint file:  "smiles_00113_conf_3.chk"
 Charge =  0 Multiplicity = 1

                         Standard orientation:
 ---------------------------------------------------------------------
 Center     Atomic      Atomic             Coordinates (Angstroms)
 Number     Number       Type             X           Y           Z
 ---------------------------------------------------------------------
      1          6           0        3.397185    1.063856    0.000106
      2          6           0        2.547668   -0.191675    0.000004
      3          8           0        3.056851   -1.300624   -0.000081
      4          6           0        1.058610   -0.042637   -0.000038
      5          6           0        0.398619    1.193430   -0.000072
      6          6           0       -0.989819    1.228275   -0.000042
      7          6           0       -1.659518    0.001726    0.000025
      8         17           0       -3.415497    0.006757    0.000009
      9          7           0       -1.070277   -1.183067    0.000046
     10          6           0        0.266122   -1.198287    0.000023
     11          1           0        3.186852    1.677525    0.882885
     12          1           0        4.448158    0.776107    0.000474
     13          1           0        3.187465    1.677225   -0.883034
     14          1           0        0.957194    2.123191   -0.000168
     15          1           0       -1.541197    2.159977   -0.000046
     16          1           0        0.748893   -2.170550    0.000041
 ---------------------------------------------------------------------

 SCF Done:  E(RM062X) =  -860.524026107     A.U. after    1 cycles

      1  C    Isotropic =   155.5273   Anisotropy =    49.5695

      2  C    Isotropic =   -39.8027   Anisotropy =   207.6269

      3  O    Isotropic =  -413.6802   Anisotropy =  1160.2035

      4  C    Isotropic =    34.5927   Anisotropy =   199.6657

      5  C    Isotropic =    22.4896   Anisotropy =   231.7247

      6  C    Isotropic =    40.8880   Anisotropy =   177.6466

      7  C    Isotropic =    -1.4097   Anisotropy =   130.1232

      8  Cl   Isotropic =   586.1555   Anisotropy =   615.2271

      9  N    Isotropic =  -129.5902   Anisotropy =   581.3759

     10  C    Isotropic =     9.6099   Anisotropy =   210.4419

     11  H    Isotropic =    29.0533   Anisotropy =     4.3421

     12  H    Isotropic =    29.4263   Anisotropy =     6.3122

     13  H    Isotropic =    29.0540   Anisotropy =     4.3445

     14  H    Isotropic =    22.8049   Anisotropy =     9.1668

     15  H    Isotropic =    23.6700   Anisotropy =     9.4572

     16  H    Isotropic =    21.7300   Anisotropy =     7.9381

 The electronic state is 1-A.
 Alpha  occ. eigenvalues -- -102.65436 -19.62868 -14.77515 -10.65494 -10.64638
 Alpha  occ. eigenvalues --  -10.60038 -10.58622 -10.57513 -10.57323 -10.54550
 Alpha  occ. eigenvalues --   -9.81710  -7.53897  -7.53403  -7.53368  -1.17589
 Alpha  occ. eigenvalues --   -1.09116  -0.96432  -0.93636  -0.87252  -0.83941
 Alpha  occ. eigenvalues --   -0.74389  -0.73455  -0.65512  -0.60518  -0.58527
 Alpha  occ. eigenvalues --   -0.55350  -0.53087  -0.53077  -0.51366  -0.50640
 Alpha  occ. eigenvalues --   -0.49254  -0.47037  -0.45247  -0.44376  -0.41172
 Alpha  occ. eigenvalues --   -0.39089  -0.36955  -0.36426  -0.33472  -0.32235
 Alpha virt. eigenvalues --   -0.04452  -0.01601   0.05529   0.05991   0.07606
 Alpha virt. eigenvalues --    0.10497   0.11530   0.13145   0.13949   0.14140
 Alpha virt. eigenvalues --    0.14390   0.16812   0.17185   0.19077   0.20349

 Mulliken charges:
               1
     1  C   -0.534031
     2  C    0.289514
     3  O   -0.329389
     4  C    0.009209
     5  C   -0.132250
     6  C   -0.216852
     7  C    0.165711
     8  Cl  -0.076881
     9  N   -0.218944
    10  C   -0.056523
    11  H    0.182744
    12  H    0.171940
    13  H    0.182778
    14  H    0.194640
    15  H    0.181291
    16  H    0.187044
 Sum of Mulliken charges =  -0.00000

 Dipole moment (field-independent basis, Debye):
    X=              1.4505    Y=              5.0126    Z=              0.0000  Tot=              5.2182
 Quadrupole moment (field-independent basis, Debye-Ang):
   XX=            -71.6086   YY=            -63.2422   ZZ=            -65.2773
   XY=              5.9343   XZ=              0.0005   YZ=             -0.0006

 Normal termination of Gaussian 16 at Tue Sep 17 10:21:18 2024.
