 Gaussian 16, Revision C.02,

 ----------------------------------------------------------------------
 #p B3LYP/6-31G(d,p) EmpiricalDispersion=GD3BJ opt freq scf(xqc,tight)
 integral(grid=ultrafine)
 ----------------------------------------------------------------------

 ----------------------------------
 opt-freq conformers_unique/conf_aa
 ----------------------------------
 Symbolic Z-matrix:
 Charge =  0 Multiplicity = 1

 SCF Done:  E(RB3LYP) =  -860.567424972     A.U. after   15 cycles
 SCF Done:  E(RB3LYP) =  -860.569315249     A.U. after   12 cycles
 SCF Done:  E(RB3LYP) =  -860.569474311     A.U. after   11 cycles
 SCF Done:  E(RB3LYP) =  -860.569481129     A.U. after   10 cycles
 SCF Done:  E(RB3LYP) =  -860.569463927     A.U. after   11 cycles
 SCF Done:  E(RB3LYP) =  -860.569494736     A.U. after   10 cycles
 Optimization completed.
    -- Stationary point found.
 Normal termination of Gaussian 16 at Tue Sep 17 09:52:41 2024.

 ----------------------------------------------------------------------
 #P Geom=AllCheck Guess=TCheck SCRF=Check GenChk RB3LYP/6-31G(d,p) Freq
 ----------------------------------------------------------------------

 Structure from the checkpoint file:  "smiles_00113_conf_0.chk"
 ----------------------------------
 opt-freq conformers_unique/conf_aa
 ----------------------------------
 Charge =  0 Multiplicity = 1

 SCF Done:  E(RB3LYP) =  -860.569494736     A.U. after    1 cycles

                      1                      2                      3
                      A                      A                      A
 Frequencies --     68.1304                82.7748               164.0393
 Red. masses --      4.1509                 8.9859                 1.0345
 Frc consts  --      0.0114                 0.0363                 0.0164
 IR Inten    --      5.9560                 2.0909                 0.3069

                      4                      5                      6
                      A                      A                      A
 Frequencies --    173.1435               252.5315               303.6734
 Red. masses --      5.7479                 6.6289                 6.0401
 Frc consts  --      0.1015                 0.2491                 0.3282
 IR Inten    --      6.1204                 0.7507                 3.1968

                      7                      8                      9
                      A                      A                      A
 Frequencies --    333.8006               418.6598               442.4179
 Red. masses --      8.9348                 3.4586                 3.6432
 Frc consts  --      0.5866                 0.3572                 0.4201
 IR Inten    --      0.9108                 3.2153                10.8545

                     10                     11                     12
                      A                      A                      A
 Frequencies --    482.6626               526.7998               607.7795
 Red. masses --      3.1913                 9.3351                 2.5793
 Frc consts  --      0.4380                 1.5264                 0.5614
 IR Inten    --      0.6947                26.9674                 3.2521

                     13                     14                     15
                      A                      A                      A
 Frequencies --    627.9468               645.2893               756.6249
 Red. masses --      4.3266                 7.5122                 5.2504
 Frc consts  --      1.0052                 1.8430                 1.7709
 IR Inten    --      4.0938                 2.1641                 5.6341

                     16                     17                     18
                      A                      A                      A
 Frequencies --    801.2295               860.0745               953.0837
 Red. masses --      6.8647                 1.3698                 1.3948
 Frc consts  --      2.5965                 0.5970                 0.7465
 IR Inten    --     32.3912                23.0275                 2.5212

                     19                     20                     21
                      A                      A                      A
 Frequencies --    967.4810              1013.5494              1035.1407
 Red. masses --      2.1577                 1.3326                 3.5962
 Frc consts  --      1.1900                 0.8065                 2.2704
 IR Inten    --     37.3762                 0.9501                12.5025

                     22                     23                     24
                      A                      A                      A
 Frequencies --   1050.2919              1104.6993              1137.1736
 Red. masses --      1.8599                 2.6264                 2.4099
 Frc consts  --      1.2088                 1.8884                 1.8361
 IR Inten    --      1.1365                 3.5650               164.2914

                     25                     26                     27
                      A                      A                      A
 Frequencies --   1156.2851              1293.7011              1328.5301
 Red. masses --      1.5102                 3.3164                 8.4807
 Frc consts  --      1.1896                 3.2702                 8.8191
 IR Inten    --     19.0576               163.7034                 7.3354

                     28                     29                     30
                      A                      A                      A
 Frequencies --   1332.3262              1393.3128              1406.5197
 Red. masses --      1.4644                 1.7854                 2.0585
 Frc consts  --      1.5315                 2.0421                 2.3994
 IR Inten    --     21.3691                 5.7182               143.4754

                     31                     32                     33
                      A                      A                      A
 Frequencies --   1481.1849              1491.0685              1507.5677
 Red. masses --      1.0668                 1.0471                 2.3193
 Frc consts  --      1.3790                 1.3716                 3.1057
 IR Inten    --     11.0593                10.4375                31.8916

                     34                     35                     36
                      A                      A                      A
 Frequencies --   1607.3002              1637.7269              1784.7650
 Red. masses --      7.3703                 5.6042                10.9419
 Frc consts  --     11.2184                 8.8561                20.5354
 IR Inten    --     33.2967               176.4348               160.5783

                     37                     38                     39
                      A                      A                      A
 Frequencies --   3051.2471              3114.7234              3173.5412
 Red. masses --      1.0380                 1.0999                 1.1019
 Frc consts  --      5.6936                 6.2870                 6.5385
 IR Inten    --      2.0370                 6.7316                10.0916

                     40                     41                     42
                      A                      A                      A
 Frequencies --   3191.2784              3220.4172              3236.4739
 Red. masses --      1.0906                 1.0894                 1.0961
 Frc consts  --      6.5440                 6.6565                 6.7645
 IR Inten    --     12.7395                 0.4961                 1.8180

 - Thermochemistry -
 -------------------
 Temperature   298.150 Kelvin.  Pressure   1.00000 Atm.
 Atom     1 has atomic number  6 and mass  12.00000

 Molecular mass:   155.01379 amu.
 Principal axes and moments of inertia in atomic units:
                           1         2         3
     Eigenvalues --   482.921353192.443933664.15836
           X            0.99970   0.02466   0.00006
           Y           -0.02466   0.99970  -0.00015
           Z           -0.00006   0.00015   1.00000
 This molecule is an asymmetric top.
 Rotational symmetry number  1.
 Warning -- assumption of classical behavior for rotation
           may cause significant error
 Rotational temperatures (Kelvin)      0.17935     0.02713     0.02364
 Rotational constants (GHZ):           3.73713     0.56532     0.49254
 Zero-point vibrational energy     306345.5 (Joules/Mol)
                                   73.21833 (Kcal/Mol)
 Warning -- explicit consideration of  12 degrees of freedom as
           vibrations may cause significant error
 Vibrational temperatures:     98.02   119.09   236.02   249.11   363.34
          (Kelvin)            436.92   480.26   602.36   636.54   694.44
                              757.95   874.46   903.48   928.43  1088.61
                             1152.79  1237.46  1371.27  1391.99  1458.27
                             1489.34  1511.14  1589.42  1636.14  1663.64
                             1861.35  1911.46  1916.92  2004.67  2023.67
                             2131.09  2145.31  2169.05  2312.55  2356.32
                             2567.88  4390.06  4481.39  4566.02  4591.54
                             4633.46  4656.56

 Zero-point correction=                           0.116681 (Hartree/Particle)
 Thermal correction to Energy=                    0.125573
 Thermal correction to Enthalpy=                  0.126517
 Thermal correction to Gibbs Free Energy=         0.081823
 Sum of electronic and zero-point Energies=           -860.452814
 Sum of electronic and thermal Energies=              -860.443922
 Sum of electronic and thermal Enthalpies=            -860.442978
 Sum of electronic and thermal Free Energies=         -860.487672

                     E (Thermal)             CV                S
                      KCal/Mol        Cal/Mol-Kelvin    Cal/Mol-Kelvin
 Total                   78.798             32.450             94.067
 Electronic               0.000              0.000              0.000
 Translational            0.889              2.981             41.025
 Rotational               0.889              2.981             30.114
 Vibrational             77.021             26.489             22.928
 Vibration     1          0.598              1.969              4.207
 Vibration     2          0.600              1.961              3.824
 Vibration     3          0.623              1.887              2.503
 Vibration     4          0.627              1.876              2.401
 Vibration     5          0.664              1.759              1.713
 Vibration     6          0.695              1.667              1.397
 Vibration     7          0.715              1.608              1.242
 Vibration     8          0.782              1.430              0.897
 Vibration     9          0.802              1.378              0.819
 Vibration    10          0.839              1.289              0.703
 Vibration    11          0.882              1.191              0.594
 Vibration    12          0.967              1.015              0.436

 Optimization completed.
    -- Stationary point found.
 Normal termination of Gaussian 16 at Tue Sep 17 09:53:21 2024.

 ----------------------------------------------------------------------
 #p M062X/def2tzvp geom=check guess=read scf(xqc,tight) integral(grid=u
 ltrafine) scrf(SMD, solvent=1,4-Dioxane) polar prop=efg volume
 ----------------------------------------------------------------------

 ---
 spe
 ---
 Structure from the checkpoint file:  "smiles_00113_conf_0.chk"
 Charge =  0 Multiplicity = 1

 SCF Done:  E(RM062X) =  -860.525114217     A.U. after   12 cycles

  Exact polarizability:     171.631      -0.503     115.343      -0.006       0.009      64.876
 Approx polarizability:     170.271      -6.809     139.258      -0.006       0.009      80.851

 Normal termination of Gaussian 16 at Tue Sep 17 10:12:25 2024.
 Gaussian 16:  ES64L-G16RevC.02  7-Dec-2021

 ----------------------------------------------------------------------
 #p M062X/def2tzvp geom=check guess=read scf(xqc,tight) integral(grid=u
 ltrafine) scrf(SMD, solvent=1,4-Dioxane) nmr=giao
 ----------------------------------------------------------------------

 ---
 spe
 ---
 Structure from the checkpoint file:  "smiles_00113_conf_0.chk"
 Charge =  0 Multiplicity = 1

                         Standard orientation:
 ---------------------------------------------------------------------
 Center     Atomic      Atomic             Coordinates (Angstroms)
 Number     Number       Type             X           Y           Z
 ---------------------------------------------------------------------
      1          6           0       -3.333838   -1.154370    0.000045
      2          6           0       -2.553285    0.143797    0.000304
      3          8           0       -3.119740    1.225080    0.000108
      4          6           0       -1.058075    0.081620    0.000180
      5          6           0       -0.328208    1.280095    0.000346
      6          6           0        1.056054    1.237295    0.000224
      7          6           0        1.656126   -0.027868   -0.000089
      8         17           0        3.409332   -0.122741   -0.000264
      9          7           0        1.002042   -1.175832   -0.000283
     10          6           0       -0.336012   -1.115113   -0.000144
     11          1           0       -4.398698   -0.923296    0.000481
     12          1           0       -3.090196   -1.755313   -0.882651
     13          1           0       -3.089588   -1.756178    0.881969
     14          1           0       -0.870658    2.219204    0.000570
     15          1           0        1.661082    2.135233    0.000356
     16          1           0       -0.843525   -2.075611   -0.000318
 ---------------------------------------------------------------------

 SCF Done:  E(RM062X) =  -860.525114217     A.U. after    1 cycles

      1  C    Isotropic =   155.9100   Anisotropy =    49.5830

      2  C    Isotropic =   -39.2331   Anisotropy =   210.6215

      3  O    Isotropic =  -414.8725   Anisotropy =  1157.6668

      4  C    Isotropic =    32.9547   Anisotropy =   198.9636

      5  C    Isotropic =    22.0657   Anisotropy =   247.2771

      6  C    Isotropic =    39.5153   Anisotropy =   178.5813

      7  C    Isotropic =    -1.3314   Anisotropy =   130.4100

      8  Cl   Isotropic =   584.6034   Anisotropy =   614.9235

      9  N    Isotropic =  -125.4417   Anisotropy =   569.9952

     10  C    Isotropic =    10.2104   Anisotropy =   196.9400

     11  H    Isotropic =    29.3747   Anisotropy =     6.2587

     12  H    Isotropic =    28.9614   Anisotropy =     4.5947

     13  H    Isotropic =    28.9600   Anisotropy =     4.5915

     14  H    Isotropic =    22.4854   Anisotropy =     7.9628

     15  H    Isotropic =    23.6317   Anisotropy =     9.3245

     16  H    Isotropic =    21.9225   Anisotropy =     8.7060

 The electronic state is 1-A.
 Alpha  occ. eigenvalues -- -102.65476 -19.62944 -14.77639 -10.65554 -10.64650
 Alpha  occ. eigenvalues --  -10.60532 -10.58044 -10.57390 -10.57302 -10.54466
 Alpha  occ. eigenvalues --   -9.81749  -7.53937  -7.53443  -7.53408  -1.17632
 Alpha  occ. eigenvalues --   -1.09260  -0.96532  -0.93228  -0.87950  -0.83356
 Alpha  occ. eigenvalues --   -0.75122  -0.72715  -0.65532  -0.60300  -0.58933
 Alpha  occ. eigenvalues --   -0.55455  -0.53172  -0.53110  -0.51334  -0.50654
 Alpha  occ. eigenvalues --   -0.48867  -0.46927  -0.45238  -0.44382  -0.41270
 Alpha  occ. eigenvalues --   -0.39124  -0.36640  -0.36184  -0.33969  -0.32447
 Alpha virt. eigenvalues --   -0.04462  -0.01542   0.05494   0.06336   0.07483
 Alpha virt. eigenvalues --    0.10489   0.12436   0.12732   0.13341   0.14332
 Alpha virt. eigenvalues --    0.14774   0.17216   0.17314   0.19034   0.20214

 Mulliken charges:
               1
     1  C   -0.536195
     2  C    0.291956
     3  O   -0.331993
     4  C    0.004274
     5  C   -0.126307
     6  C   -0.194597
     7  C    0.157403
     8  Cl  -0.075927
     9  N   -0.222090
    10  C   -0.070428
    11  H    0.171177
    12  H    0.185378
    13  H    0.185328
    14  H    0.193886
    15  H    0.182978
    16  H    0.185157
 Sum of Mulliken charges =  -0.00000

 Dipole moment (field-independent basis, Debye):
    X=             -1.1597    Y=             -0.5747    Z=              0.0006  Tot=              1.2943
 Quadrupole moment (field-independent basis, Debye-Ang):
   XX=            -72.0877   YY=            -62.8782   ZZ=            -65.2697
   XY=             13.9225   XZ=              0.0011   YZ=              0.0009

 Normal termination of Gaussian 16 at Tue Sep 17 10:19:28 2024.
