 Gaussian 16, Revision C.02,

 ----------------------------------------------------------------------
 #p B3LYP/6-31G(d,p) EmpiricalDispersion=GD3BJ opt freq scf(xqc,tight)
 integral(grid=ultrafine)
 ----------------------------------------------------------------------

 ----------------------------------
 opt-freq conformers_unique/conf_aa
 ----------------------------------
 Symbolic Z-matrix:
 Charge =  0 Multiplicity = 1

 SCF Done:  E(RB3LYP) =  -3293.83998695     A.U. after   15 cycles
 SCF Done:  E(RB3LYP) =  -3293.84166382     A.U. after   12 cycles
 SCF Done:  E(RB3LYP) =  -3293.84177816     A.U. after   10 cycles
 SCF Done:  E(RB3LYP) =  -3293.84179488     A.U. after   10 cycles
 Optimization completed.
    -- Stationary point found.
 Normal termination of Gaussian 16 at Tue Sep 17 09:52:14 2024.

 ----------------------------------------------------------------------
 #P Geom=AllCheck Guess=TCheck SCRF=Check GenChk RB3LYP/6-31G(d,p) Freq
 ----------------------------------------------------------------------

 Structure from the checkpoint file:  "smiles_00114_conf_0.chk"
 ----------------------------------
 opt-freq conformers_unique/conf_aa
 ----------------------------------
 Charge =  0 Multiplicity = 1

 SCF Done:  E(RB3LYP) =  -3293.84179488     A.U. after    1 cycles

                      1                      2                      3
                      A                      A                      A
 Frequencies --     94.2588               167.5515               195.2655
 Red. masses --      7.7238                10.2720                 5.8467
 Frc consts  --      0.0404                 0.1699                 0.1313
 IR Inten    --      0.7486                 0.7068                 1.1732

                      4                      5                      6
                      A                      A                      A
 Frequencies --    273.2209               288.9576               384.7843
 Red. masses --     18.4697                 6.8187                 8.5863
 Frc consts  --      0.8123                 0.3354                 0.7490
 IR Inten    --      3.5450                 0.0084                 0.6447

                      7                      8                      9
                      A                      A                      A
 Frequencies --    434.2059               511.4634               514.6465
 Red. masses --      3.2680                 8.4508                 6.4972
 Frc consts  --      0.3630                 1.3025                 1.0139
 IR Inten    --      3.0417                 0.6529                 0.1955

                     10                     11                     12
                      A                      A                      A
 Frequencies --    586.4681               593.7063               667.9538
 Red. masses --      8.9384                 5.1306                11.4159
 Frc consts  --      1.8113                 1.0655                 3.0009
 IR Inten    --      2.6224                 0.0158                 7.1883

                     13                     14                     15
                      A                      A                      A
 Frequencies --    716.8855               738.3013               772.1173
 Red. masses --      7.0509                 2.8412                 1.5525
 Frc consts  --      2.1350                 0.9125                 0.5453
 IR Inten    --      6.0025                 9.5821                42.6080

                     16                     17                     18
                      A                      A                      A
 Frequencies --    858.4739               871.0532               950.4038
 Red. masses --      6.6923                 1.3561                 1.3542
 Frc consts  --      2.9059                 0.6062                 0.7207
 IR Inten    --      6.6917                 0.5510                 1.5583

                     19                     20                     21
                      A                      A                      A
 Frequencies --    970.4401               990.6123              1047.2802
 Red. masses --     10.7194                 1.2677                 2.0702
 Frc consts  --      5.9478                 0.7330                 1.3378
 IR Inten    --    155.4208                 0.0052                 1.2561

                     22                     23                     24
                      A                      A                      A
 Frequencies --   1088.6370              1151.0717              1190.6583
 Red. masses --      5.4016                 1.4607                 1.1713
 Frc consts  --      3.7717                 1.1403                 0.9784
 IR Inten    --      8.7737                 2.2920                 0.2746

                     25                     26                     27
                      A                      A                      A
 Frequencies --   1266.0275              1308.7903              1363.3830
 Red. masses --      2.8390                 1.8445                 6.5981
 Frc consts  --      2.6811                 1.8615                 7.2262
 IR Inten    --     11.0327                 1.7527                12.2233

                     28                     29                     30
                      A                      A                      A
 Frequencies --   1472.7921              1501.4859              1548.1690
 Red. masses --      2.5539                 2.5682                 9.7994
 Frc consts  --      3.2640                 3.4113                13.8384
 IR Inten    --     53.5967                 5.7847               123.6467

                     31                     32                     33
                      A                      A                      A
 Frequencies --   1615.4022              1654.7976              3191.6324
 Red. masses --      5.7207                 6.4510                 1.0860
 Frc consts  --      8.7955                10.4079                 6.5182
 IR Inten    --      3.2651                 8.1527                 1.3043

                     34                     35                     36
                      A                      A                      A
 Frequencies --   3203.6193              3213.6612              3222.1900
 Red. masses --      1.0901                 1.0952                 1.0961
 Frc consts  --      6.5916                 6.6639                 6.7053
 IR Inten    --      7.4371                14.8090                 8.5962

 - Thermochemistry -
 -------------------
 Temperature   298.150 Kelvin.  Pressure   1.00000 Atm.
 Atom     1 has atomic number 35 and mass  78.91834

 Molecular mass:   212.92478 amu.
 Principal axes and moments of inertia in atomic units:
                           1         2         3
     Eigenvalues --   654.526604233.711444888.23804
           X            0.99997   0.00823   0.00003
           Y           -0.00823   0.99997  -0.00005
           Z           -0.00003   0.00005   1.00000
 This molecule is an asymmetric top.
 Rotational symmetry number  1.
 Warning -- assumption of classical behavior for rotation
           may cause significant error
 Rotational temperatures (Kelvin)      0.13233     0.02046     0.01772
 Rotational constants (GHZ):           2.75732     0.42628     0.36920
 Zero-point vibrational energy     242963.8 (Joules/Mol)
                                   58.06973 (Kcal/Mol)
 Warning -- explicit consideration of  11 degrees of freedom as
           vibrations may cause significant error
 Vibrational temperatures:    135.62   241.07   280.94   393.10   415.75
          (Kelvin)            553.62   624.73   735.88   740.46   843.80
                              854.21   961.04  1031.44  1062.25  1110.90
                             1235.15  1253.25  1367.42  1396.25  1425.27
                             1506.80  1566.31  1656.14  1713.09  1821.53
                             1883.06  1961.60  2119.02  2160.30  2227.47
                             2324.20  2380.88  4592.05  4609.29  4623.74
                             4636.01

 Zero-point correction=                           0.092540 (Hartree/Particle)
 Thermal correction to Energy=                    0.100362
 Thermal correction to Enthalpy=                  0.101307
 Thermal correction to Gibbs Free Energy=         0.058355
 Sum of electronic and zero-point Energies=          -3293.749255
 Sum of electronic and thermal Energies=             -3293.741432
 Sum of electronic and thermal Enthalpies=           -3293.740488
 Sum of electronic and thermal Free Energies=        -3293.783440

                     E (Thermal)             CV                S
                      KCal/Mol        Cal/Mol-Kelvin    Cal/Mol-Kelvin
 Total                   62.978             29.795             90.400
 Electronic               0.000              0.000              0.000
 Translational            0.889              2.981             41.971
 Rotational               0.889              2.981             30.983
 Vibrational             61.201             23.834             17.446
 Vibration     1          0.603              1.953              3.570
 Vibration     2          0.624              1.882              2.463
 Vibration     3          0.636              1.846              2.177
 Vibration     4          0.676              1.723              1.576
 Vibration     5          0.686              1.694              1.480
 Vibration     6          0.754              1.503              1.020
 Vibration     7          0.795              1.396              0.845
 Vibration     8          0.867              1.225              0.630
 Vibration     9          0.870              1.218              0.622
 Vibration    10          0.944              1.061              0.474
 Vibration    11          0.951              1.045              0.461

 Optimization completed.
    -- Stationary point found.
 Normal termination of Gaussian 16 at Tue Sep 17 09:53:01 2024.

 ----------------------------------------------------------------------
 #p M062X/def2tzvp geom=check guess=read scf(xqc,tight) integral(grid=u
 ltrafine) scrf(SMD, solvent=1,4-Dioxane) polar prop=efg volume
 ----------------------------------------------------------------------

 ---
 spe
 ---
 Structure from the checkpoint file:  "smiles_00114_conf_0.chk"
 Charge =  0 Multiplicity = 1

 SCF Done:  E(RM062X) =  -3296.28459352     A.U. after   12 cycles

  Exact polarizability:     222.909       6.326     140.859      -0.004       0.002      74.388
 Approx polarizability:     230.139       6.932     180.711      -0.003       0.003      96.320

 Normal termination of Gaussian 16 at Tue Sep 17 10:14:41 2024.
 Gaussian 16:  ES64L-G16RevC.02  7-Dec-2021

 ----------------------------------------------------------------------
 #p M062X/def2tzvp geom=check guess=read scf(xqc,tight) integral(grid=u
 ltrafine) scrf(SMD, solvent=1,4-Dioxane) nmr=giao
 ----------------------------------------------------------------------

 ---
 spe
 ---
 Structure from the checkpoint file:  "smiles_00114_conf_0.chk"
 Charge =  0 Multiplicity = 1

                         Standard orientation:
 ---------------------------------------------------------------------
 Center     Atomic      Atomic             Coordinates (Angstroms)
 Number     Number       Type             X           Y           Z
 ---------------------------------------------------------------------
      1         35           0        2.762408   -0.215008   -0.000127
      2          6           0        0.881328   -0.108824   -0.000079
      3          7           0        0.107063   -1.131122   -0.000012
      4          6           0       -1.223256   -0.722486    0.000045
      5          6           0       -2.326293   -1.584377    0.000050
      6          6           0       -3.603478   -1.037984    0.000065
      7          6           0       -3.793598    0.353631    0.000082
      8          6           0       -2.710255    1.227986    0.000083
      9          6           0       -1.427713    0.679798    0.000063
     10         16           0        0.129870    1.493046    0.000147
     11          1           0       -2.161591   -2.656027    0.000027
     12          1           0       -4.467364   -1.694543    0.000065
     13          1           0       -4.801242    0.756642    0.000112
     14          1           0       -2.861862    2.301865    0.000122
 ---------------------------------------------------------------------

 SCF Done:  E(RM062X) =  -3296.28459352     A.U. after    1 cycles

      1  Br   Isotropic =  1941.8287   Anisotropy =  1419.7017

      2  C    Isotropic =    -3.3384   Anisotropy =    90.0864

      3  N    Isotropic =  -134.2999   Anisotropy =   448.4683

      4  C    Isotropic =    12.2417   Anisotropy =   152.2001

      5  C    Isotropic =    40.2525   Anisotropy =   199.2376

      6  C    Isotropic =    37.1702   Anisotropy =   215.8600

      7  C    Isotropic =    37.1935   Anisotropy =   211.7527

      8  C    Isotropic =    43.6220   Anisotropy =   203.4609

      9  C    Isotropic =    20.5718   Anisotropy =   154.6072

     10  S    Isotropic =   149.3682   Anisotropy =   328.4826

     11  H    Isotropic =    22.9760   Anisotropy =     7.2606

     12  H    Isotropic =    23.4673   Anisotropy =     6.1069

     13  H    Isotropic =    23.5047   Anisotropy =     6.2922

     14  H    Isotropic =    23.2385   Anisotropy =     8.5716

 The electronic state is 1-A.
 Alpha  occ. eigenvalues -- -485.39745 -89.95326 -63.38231 -57.20184 -57.19933
 Alpha  occ. eigenvalues --  -57.19921 -14.77567 -10.66989 -10.59382 -10.59295
 Alpha  occ. eigenvalues --  -10.56303 -10.55591 -10.55566 -10.55323  -9.04896
 Alpha  occ. eigenvalues --   -8.31073  -6.87344  -6.86410  -6.86369  -6.22989
 Alpha  occ. eigenvalues --   -6.22804  -6.22590  -2.90723  -2.90386  -2.90343
 Alpha  occ. eigenvalues --   -2.89475  -2.89475  -1.09864  -0.96926  -0.91918
 Alpha  occ. eigenvalues --   -0.89872  -0.84727  -0.81982  -0.70788  -0.69114
 Alpha  occ. eigenvalues --   -0.65401  -0.57531  -0.56727  -0.55018  -0.52079
 Alpha  occ. eigenvalues --   -0.51604  -0.48084  -0.46693  -0.44029  -0.43875
 Alpha  occ. eigenvalues --   -0.40834  -0.37724  -0.37609  -0.36997  -0.36462
 Alpha  occ. eigenvalues --   -0.29917  -0.29774
 Alpha virt. eigenvalues --   -0.02106   0.00724   0.01009   0.03917   0.04729
 Alpha virt. eigenvalues --    0.09551   0.10527   0.11100   0.12351   0.13992
 Alpha virt. eigenvalues --    0.14714   0.16437   0.17544   0.19078   0.19508

 Mulliken charges:
               1
     1  Br  -0.033866
     2  C    0.054271
     3  N   -0.214125
     4  C    0.187703
     5  C   -0.236652
     6  C   -0.140583
     7  C   -0.155407
     8  C   -0.185115
     9  C   -0.030734
    10  S    0.070196
    11  H    0.177000
    12  H    0.166873
    13  H    0.167021
    14  H    0.173417
 Sum of Mulliken charges =  -0.00000

 Dipole moment (field-independent basis, Debye):
    X=             -2.3712    Y=              1.4087    Z=              0.0002  Tot=              2.7581
 Quadrupole moment (field-independent basis, Debye-Ang):
   XX=            -64.4234   YY=            -73.2710   ZZ=            -80.2458
   XY=              0.5420   XZ=             -0.0004   YZ=              0.0004

 Normal termination of Gaussian 16 at Tue Sep 17 10:22:10 2024.
