 Gaussian 16, Revision C.02,

 ----------------------------------------------------------------------
 #p B3LYP/6-31G(d,p) EmpiricalDispersion=GD3BJ opt freq scf(xqc,tight)
 integral(grid=ultrafine)
 ----------------------------------------------------------------------

 ----------------------------------
 opt-freq conformers_unique/conf_aa
 ----------------------------------
 Symbolic Z-matrix:
 Charge =  0 Multiplicity = 1

 SCF Done:  E(RB3LYP) =  -2973.08119836     A.U. after   15 cycles
 SCF Done:  E(RB3LYP) =  -2973.08252696     A.U. after   12 cycles
 SCF Done:  E(RB3LYP) =  -2973.08257849     A.U. after    9 cycles
 SCF Done:  E(RB3LYP) =  -2973.08258161     A.U. after    8 cycles
 Optimization completed.
    -- Stationary point found.
 Normal termination of Gaussian 16 at Tue Sep 17 09:53:17 2024.

 ----------------------------------------------------------------------
 #P Geom=AllCheck Guess=TCheck SCRF=Check GenChk RB3LYP/6-31G(d,p) Freq
 ----------------------------------------------------------------------

 Structure from the checkpoint file:  "smiles_00030_conf_0.chk"
 ----------------------------------
 opt-freq conformers_unique/conf_aa
 ----------------------------------
 Charge =  0 Multiplicity = 1

 SCF Done:  E(RB3LYP) =  -2973.08258161     A.U. after    1 cycles

                      1                      2                      3
                     A"                     A'                     A"
 Frequencies --     83.7862               181.7243               184.1160
 Red. masses --      6.1797                 7.6821                 4.8094
 Frc consts  --      0.0256                 0.1495                 0.0961
 IR Inten    --      0.0987                 0.2890                 0.3106

                      4                      5                      6
                     A"                     A'                     A'
 Frequencies --    263.7750               272.1114               402.5003
 Red. masses --      4.8763                13.9336                 4.6866
 Frc consts  --      0.1999                 0.6079                 0.4473
 IR Inten    --      0.0001                 3.8828                 1.0791

                      7                      8                      9
                     A"                     A"                     A'
 Frequencies --    414.3218               479.6458               517.7579
 Red. masses --      3.3828                 2.5720                 8.1654
 Frc consts  --      0.3421                 0.3486                 1.2897
 IR Inten    --      2.1380                 8.4321                 0.2837

                     10                     11                     12
                     A"                     A'                     A'
 Frequencies --    523.5296               589.2632               667.4320
 Red. masses --      3.8860                 7.3577                 7.0046
 Frc consts  --      0.6275                 1.5053                 1.8384
 IR Inten    --      2.1244                13.6070                 4.5401

                     13                     14                     15
                     A"                     A"                     A"
 Frequencies --    681.5926               766.4186               790.8557
 Red. masses --      5.8042                 1.2603                 3.3134
 Frc consts  --      1.5887                 0.4362                 1.2210
 IR Inten    --      2.3013                33.4616                 0.1549

                     16                     17                     18
                     A'                     A'                     A"
 Frequencies --    801.7633               855.6334               872.7321
 Red. masses --      4.7923                 6.9351                 1.3322
 Frc consts  --      1.8150                 2.9914                 0.5979
 IR Inten    --      5.3540                36.2416                 2.4123

                     19                     20                     21
                     A"                     A"                     A'
 Frequencies --    905.1978               947.6807               953.9231
 Red. masses --      1.5351                 1.4141                 5.5763
 Frc consts  --      0.7411                 0.7482                 2.9897
 IR Inten    --     20.4859                 1.0105                25.9564

                     22                     23                     24
                     A"                     A"                     A'
 Frequencies --    973.3338              1003.1587              1046.8770
 Red. masses --      1.3838                 1.2925                 2.3235
 Frc consts  --      0.7724                 0.7663                 1.5003
 IR Inten    --      3.6238                 0.0068                 0.0909

                     25                     26                     27
                     A'                     A'                     A'
 Frequencies --   1089.2932              1167.6859              1181.0999
 Red. masses --      2.6681                 1.4653                 1.2489
 Frc consts  --      1.8653                 1.1771                 1.0264
 IR Inten    --     90.8709                16.0223                 2.5542

                     28                     29                     30
                     A'                     A'                     A'
 Frequencies --   1232.9707              1280.3989              1300.1294
 Red. masses --      1.8789                 1.6719                 1.9656
 Frc consts  --      1.6829                 1.6149                 1.9576
 IR Inten    --     12.1759                 7.2060                20.0125

                     31                     32                     33
                     A'                     A'                     A'
 Frequencies --   1358.1438              1385.7881              1428.9392
 Red. masses --      2.1583                 3.8159                 8.1888
 Frc consts  --      2.3456                 4.3176                 9.8514
 IR Inten    --      2.3411                 3.0695                 1.4809

                     34                     35                     36
                     A'                     A'                     A'
 Frequencies --   1466.4350              1475.4724              1544.0778
 Red. masses --      2.0419                 2.5411                 3.2203
 Frc consts  --      2.5871                 3.2594                 4.5236
 IR Inten    --     62.1160                10.5891                31.2097

                     37                     38                     39
                     A'                     A'                     A'
 Frequencies --   1620.1881              1624.6920              1680.9981
 Red. masses --      6.2813                 6.3790                 5.9630
 Frc consts  --      9.7147                 9.9207                 9.9278
 IR Inten    --     65.2925                43.5920                34.2738

                     40                     41                     42
                     A'                     A'                     A'
 Frequencies --   3155.5756              3184.1930              3189.3622
 Red. masses --      1.0905                 1.0860                 1.0885
 Frc consts  --      6.3980                 6.4876                 6.5236
 IR Inten    --     18.2517                 1.9355                 1.2664

                     43                     44                     45
                     A'                     A'                     A'
 Frequencies --   3201.1780              3212.3367              3221.6522
 Red. masses --      1.0943                 1.0978                 1.0926
 Frc consts  --      6.6069                 6.6746                 6.6812
 IR Inten    --     20.7637                20.2836                 1.2933

 - Thermochemistry -
 -------------------
 Temperature   298.150 Kelvin.  Pressure   1.00000 Atm.
 Atom     1 has atomic number 35 and mass  78.91834

 Molecular mass:   206.96836 amu.
 Principal axes and moments of inertia in atomic units:
                           1         2         3
     Eigenvalues --   653.401974662.132185315.53415
           X            0.98895   0.14822   0.00000
           Y           -0.14822   0.98895   0.00000
           Z            0.00000  -0.00000   1.00000
 This molecule is an asymmetric top.
 Rotational symmetry number  1.
 Warning -- assumption of classical behavior for rotation
           may cause significant error
 Rotational temperatures (Kelvin)      0.13256     0.01858     0.01629
 Rotational constants (GHZ):           2.76207     0.38711     0.33952
 Zero-point vibrational energy     330048.1 (Joules/Mol)
                                   78.88340 (Kcal/Mol)
 Warning -- explicit consideration of  11 degrees of freedom as
           vibrations may cause significant error
 Vibrational temperatures:    120.55   261.46   264.90   379.51   391.51
          (Kelvin)            579.11   596.12   690.10   744.94   753.24
                              847.82   960.29   980.66  1102.71  1137.86
                             1153.56  1231.07  1255.67  1302.38  1363.50
                             1372.48  1400.41  1443.32  1506.22  1567.25
                             1680.04  1699.34  1773.97  1842.21  1870.60
                             1954.07  1993.84  2055.92  2109.87  2122.88
                             2221.58  2331.09  2337.57  2418.58  4540.17
                             4581.34  4588.78  4605.78  4621.84  4635.24

 Zero-point correction=                           0.125709 (Hartree/Particle)
 Thermal correction to Energy=                    0.133849
 Thermal correction to Enthalpy=                  0.134794
 Thermal correction to Gibbs Free Energy=         0.091281
 Sum of electronic and zero-point Energies=          -2972.956873
 Sum of electronic and thermal Energies=             -2972.948732
 Sum of electronic and thermal Enthalpies=           -2972.947788
 Sum of electronic and thermal Free Energies=        -2972.991301

                     E (Thermal)             CV                S
                      KCal/Mol        Cal/Mol-Kelvin    Cal/Mol-Kelvin
 Total                   83.992             32.046             91.581
 Electronic               0.000              0.000              0.000
 Translational            0.889              2.981             41.886
 Rotational               0.889              2.981             31.160
 Vibrational             82.214             26.085             18.534
 Vibration     1          0.601              1.960              3.800
 Vibration     2          0.630              1.865              2.311
 Vibration     3          0.631              1.861              2.286
 Vibration     4          0.670              1.739              1.637
 Vibration     5          0.675              1.725              1.583
 Vibration     6          0.768              1.465              0.954
 Vibration     7          0.778              1.439              0.911
 Vibration     8          0.836              1.295              0.711
 Vibration     9          0.873              1.211              0.615
 Vibration    10          0.878              1.198              0.602
 Vibration    11          0.947              1.055              0.468

 Optimization completed.
    -- Stationary point found.
 Normal termination of Gaussian 16 at Tue Sep 17 09:54:11 2024.

 ----------------------------------------------------------------------
 #p M062X/def2tzvp geom=check guess=read scf(xqc,tight) integral(grid=u
 ltrafine) scrf(SMD, solvent=1,4-Dioxane) polar prop=efg volume
 ----------------------------------------------------------------------

 ---
 spe
 ---
 Structure from the checkpoint file:  "smiles_00030_conf_0.chk"
 Charge =  0 Multiplicity = 1

 SCF Done:  E(RM062X) =  -2975.50732116     A.U. after   12 cycles

  Exact polarizability:     240.107      -8.395     152.321       0.000      -0.000      76.646
 Approx polarizability:     245.509      -3.429     184.165      -0.000      -0.000      97.015

 Normal termination of Gaussian 16 at Tue Sep 17 10:21:15 2024.
 Gaussian 16:  ES64L-G16RevC.02  7-Dec-2021

 ----------------------------------------------------------------------
 #p M062X/def2tzvp geom=check guess=read scf(xqc,tight) integral(grid=u
 ltrafine) scrf(SMD, solvent=1,4-Dioxane) nmr=giao
 ----------------------------------------------------------------------

 ---
 spe
 ---
 Structure from the checkpoint file:  "smiles_00030_conf_0.chk"
 Charge =  0 Multiplicity = 1

                         Standard orientation:
 ---------------------------------------------------------------------
 Center     Atomic      Atomic             Coordinates (Angstroms)
 Number     Number       Type             X           Y           Z
 ---------------------------------------------------------------------
      1         35           0       -2.837763    0.628544   -0.000000
      2          6           0       -1.031024   -0.014994   -0.000000
      3          6           0        0.000000    0.895451   -0.000000
      4          6           0        1.326831    0.400687    0.000000
      5          6           0        2.472976    1.238506    0.000000
      6          6           0        3.732556    0.685673    0.000000
      7          6           0        3.910200   -0.721261    0.000000
      8          6           0        2.818356   -1.557169    0.000000
      9          6           0        1.508099   -1.016343    0.000000
     10          6           0        0.342538   -1.824543    0.000000
     11          7           0       -0.887616   -1.349269   -0.000000
     12          1           0       -0.194611    1.961185   -0.000000
     13          1           0        2.338831    2.315913    0.000000
     14          1           0        4.605348    1.331212    0.000000
     15          1           0        4.914044   -1.133350    0.000000
     16          1           0        2.943085   -2.636181    0.000000
     17          1           0        0.445139   -2.908991    0.000000
 ---------------------------------------------------------------------

 SCF Done:  E(RM062X) =  -2975.50732116     A.U. after    1 cycles

      1  Br   Isotropic =  1962.3449   Anisotropy =  1465.7488

      2  C    Isotropic =     8.8934   Anisotropy =   105.2949

      3  C    Isotropic =    41.2803   Anisotropy =   153.0766

      4  C    Isotropic =    23.9322   Anisotropy =   253.1719

      5  C    Isotropic =    37.9606   Anisotropy =   194.7405

      6  C    Isotropic =    31.2872   Anisotropy =   224.2102

      7  C    Isotropic =    35.2555   Anisotropy =   213.8052

      8  C    Isotropic =    34.9066   Anisotropy =   206.5909

      9  C    Isotropic =    35.6492   Anisotropy =   241.0634

     10  C    Isotropic =     8.1966   Anisotropy =   182.2888

     11  N    Isotropic =  -131.1958   Anisotropy =   557.7246

     12  H    Isotropic =    23.1801   Anisotropy =    12.7374

     13  H    Isotropic =    23.1132   Anisotropy =     8.8385

     14  H    Isotropic =    23.1791   Anisotropy =     7.0358

     15  H    Isotropic =    23.2819   Anisotropy =     6.6589

     16  H    Isotropic =    22.8907   Anisotropy =     7.6339

     17  H    Isotropic =    21.8303   Anisotropy =     8.4609

 The electronic state is 1-A'.
 Alpha  occ. eigenvalues -- -485.37183 -63.35679 -57.17619 -57.17389 -57.17377
 Alpha  occ. eigenvalues --  -14.76686 -10.63371 -10.59599 -10.57680 -10.56817
 Alpha  occ. eigenvalues --  -10.56438 -10.56138 -10.56098 -10.55845 -10.55729
 Alpha  occ. eigenvalues --   -9.02331  -6.84729  -6.83876  -6.83838  -2.88106
 Alpha  occ. eigenvalues --   -2.87802  -2.87760  -2.86966  -2.86966  -1.07734
 Alpha  occ. eigenvalues --   -0.97806  -0.91571  -0.88808  -0.86707  -0.81745
 Alpha  occ. eigenvalues --   -0.74813  -0.71271  -0.69897  -0.61347  -0.59117
 Alpha  occ. eigenvalues --   -0.58360  -0.53708  -0.52494  -0.50672  -0.50251
 Alpha  occ. eigenvalues --   -0.49892  -0.45572  -0.44267  -0.43487  -0.40859
 Alpha  occ. eigenvalues --   -0.38261  -0.35564  -0.35161  -0.34319  -0.32301
 Alpha  occ. eigenvalues --   -0.28270
 Alpha virt. eigenvalues --   -0.03876  -0.00963   0.03502   0.04132   0.08615
 Alpha virt. eigenvalues --    0.09440   0.10836   0.11304   0.12515   0.12623
 Alpha virt. eigenvalues --    0.14304   0.15395   0.17039   0.18370   0.19186

 Mulliken charges:
               1
     1  Br  -0.111990
     2  C    0.168492
     3  C   -0.240803
     4  C    0.119438
     5  C   -0.219851
     6  C   -0.131828
     7  C   -0.156359
     8  C   -0.192128
     9  C    0.075746
    10  C   -0.081280
    11  N   -0.233373
    12  H    0.177864
    13  H    0.162581
    14  H    0.168654
    15  H    0.168200
    16  H    0.164795
    17  H    0.161842
 Sum of Mulliken charges =  -0.00000

 Dipole moment (field-independent basis, Debye):
    X=              4.9945    Y=              0.5575    Z=              0.0000  Tot=              5.0255
 Quadrupole moment (field-independent basis, Debye-Ang):
   XX=            -69.1512   YY=            -67.9269   ZZ=            -80.0562
   XY=             -3.0032   XZ=             -0.0000   YZ=              0.0000

 Normal termination of Gaussian 16 at Tue Sep 17 10:32:02 2024.
