 Gaussian 16, Revision C.02,

 ----------------------------------------------------------------------
 #p B3LYP/6-31G(d,p) EmpiricalDispersion=GD3BJ opt freq scf(xqc,tight)
 integral(grid=ultrafine)
 ----------------------------------------------------------------------

 ----------------------------------
 opt-freq conformers_unique/conf_aj
 ----------------------------------
 Symbolic Z-matrix:
 Charge =  0 Multiplicity = 1

 SCF Done:  E(RB3LYP) =  -3630.84452273     A.U. after   15 cycles
 SCF Done:  E(RB3LYP) =  -3630.84699818     A.U. after   13 cycles
 SCF Done:  E(RB3LYP) =  -3630.84713952     A.U. after   13 cycles
 SCF Done:  E(RB3LYP) =  -3630.84709918     A.U. after   13 cycles
 SCF Done:  E(RB3LYP) =  -3630.84733914     A.U. after   11 cycles
 SCF Done:  E(RB3LYP) =  -3630.84738600     A.U. after   12 cycles
 SCF Done:  E(RB3LYP) =  -3630.84739132     A.U. after   11 cycles
 SCF Done:  E(RB3LYP) =  -3630.84739728     A.U. after   10 cycles
 SCF Done:  E(RB3LYP) =  -3630.84740027     A.U. after    9 cycles
 SCF Done:  E(RB3LYP) =  -3630.84740042     A.U. after    9 cycles
 SCF Done:  E(RB3LYP) =  -3630.84740090     A.U. after    8 cycles
 Optimization completed.
    -- Stationary point found.
 Normal termination of Gaussian 16 at Tue Sep 17 09:45:29 2024.

 ----------------------------------------------------------------------
 #P Geom=AllCheck Guess=TCheck SCRF=Check GenChk RB3LYP/6-31G(d,p) Freq
 ----------------------------------------------------------------------

 Structure from the checkpoint file:  "smiles_00068_conf_9.chk"
 ----------------------------------
 opt-freq conformers_unique/conf_aj
 ----------------------------------
 Charge =  0 Multiplicity = 1

 SCF Done:  E(RB3LYP) =  -3630.84740090     A.U. after    1 cycles

                      1                      2                      3
                      A                      A                      A
 Frequencies --     14.9468                40.9462                56.5144
 Red. masses --     17.2382                17.1836                17.4677
 Frc consts  --      0.0023                 0.0170                 0.0329
 IR Inten    --      0.4136                 0.2125                 0.5875

                      4                      5                      6
                      A                      A                      A
 Frequencies --    112.9142               123.1216               155.5120
 Red. masses --     14.9672                10.7717                15.1831
 Frc consts  --      0.1124                 0.0962                 0.2163
 IR Inten    --      3.7921                 3.5569                 0.5480

                      7                      8                      9
                      A                      A                      A
 Frequencies --    186.6197               212.4249               275.5222
 Red. masses --      5.1233                 5.2469                15.2872
 Frc consts  --      0.1051                 0.1395                 0.6837
 IR Inten    --      1.1567                 1.5276                 0.3153

                     10                     11                     12
                      A                      A                      A
 Frequencies --    300.7777               321.0563               361.9584
 Red. masses --      9.7519                15.0930                 9.3954
 Frc consts  --      0.5198                 0.9166                 0.7252
 IR Inten    --      2.9692                 1.8172                 0.2251

                     13                     14                     15
                      A                      A                      A
 Frequencies --    404.9739               444.8194               455.0403
 Red. masses --      6.4367                12.5308                16.1567
 Frc consts  --      0.6220                 1.4608                 1.9711
 IR Inten    --      3.7168                 1.9339                 4.3246

                     16                     17                     18
                      A                      A                      A
 Frequencies --    466.1345               529.4142               532.9572
 Red. masses --      8.5812                 8.8335                17.8489
 Frc consts  --      1.0985                 1.4587                 2.9871
 IR Inten    --      0.2177                 1.3166                 1.5106

                     19                     20                     21
                      A                      A                      A
 Frequencies --    571.4813               585.8290               621.5517
 Red. masses --      8.7821                 7.3507                 7.0432
 Frc consts  --      1.6899                 1.4863                 1.6032
 IR Inten    --      2.5369                 0.2614                 1.4777

                     22                     23                     24
                      A                      A                      A
 Frequencies --    695.0560               756.5320               785.4454
 Red. masses --      2.4296                17.5316                11.0301
 Frc consts  --      0.6915                 5.9119                 4.0092
 IR Inten    --     15.9405                21.9953                40.0992

                     25                     26                     27
                      A                      A                      A
 Frequencies --    885.3401               904.0602               925.1483
 Red. masses --      9.7971                 1.5729                 1.3663
 Frc consts  --      4.5245                 0.7574                 0.6890
 IR Inten    --     17.9727                19.2608                 0.4118

                     28                     29                     30
                      A                      A                      A
 Frequencies --    933.0601              1015.7405              1121.9254
 Red. masses --      1.3833                 6.1562                 8.0862
 Frc consts  --      0.7096                 3.7422                 5.9969
 IR Inten    --      3.0545                 3.3517               397.8151

                     31                     32                     33
                      A                      A                      A
 Frequencies --   1136.0312              1147.6139              1200.0842
 Red. masses --      1.7874                 1.7303                12.4196
 Frc consts  --      1.3591                 1.3426                10.5385
 IR Inten    --     10.0136                54.1365               209.7645

                     34                     35                     36
                      A                      A                      A
 Frequencies --   1231.8827              1234.3322              1291.8478
 Red. masses --     12.3182                 4.2675                 1.4967
 Frc consts  --     11.0138                 3.8307                 1.4717
 IR Inten    --    225.2048                24.7897                 0.4222

                     37                     38                     39
                      A                      A                      A
 Frequencies --   1342.8791              1446.4823              1458.1875
 Red. masses --      3.6515                 3.0531                 3.3588
 Frc consts  --      3.8797                 3.7637                 4.2078
 IR Inten    --      0.3590                22.6460                12.1856

                     40                     41                     42
                      A                      A                      A
 Frequencies --   1601.7246              1632.9278              2358.2356
 Red. masses --      5.8875                 6.0948                12.6794
 Frc consts  --      8.8994                 9.5750                41.5455
 IR Inten    --     63.0159                 9.7748                14.6342

                     43                     44                     45
                      A                      A                      A
 Frequencies --   3234.2113              3236.8503              3242.8090
 Red. masses --      1.0930                 1.0932                 1.0927
 Frc consts  --      6.7362                 6.7480                 6.7702
 IR Inten    --      1.1230                 1.1966                 2.5879

 - Thermochemistry -
 -------------------
 Temperature   298.150 Kelvin.  Pressure   1.00000 Atm.
 Atom     1 has atomic number  7 and mass  14.00307

 Molecular mass:   280.91217 amu.
 Principal axes and moments of inertia in atomic units:
                           1         2         3
     Eigenvalues --  3438.945346377.643709050.80352
           X            0.99901  -0.04418  -0.00452
           Y            0.04419   0.99902   0.00264
           Z            0.00440  -0.00283   0.99999
 This molecule is an asymmetric top.
 Rotational symmetry number  1.
 Warning -- assumption of classical behavior for rotation
           may cause significant error
 Rotational temperatures (Kelvin)      0.02519     0.01358     0.00957
 Rotational constants (GHZ):           0.52479     0.28298     0.19940
 Zero-point vibrational energy     248780.9 (Joules/Mol)
                                   59.46007 (Kcal/Mol)
 Warning -- explicit consideration of  20 degrees of freedom as
           vibrations may cause significant error
 Vibrational temperatures:     21.51    58.91    81.31   162.46   177.14
          (Kelvin)            223.75   268.50   305.63   396.42   432.75
                              461.93   520.78   582.67   640.00   654.70
                              670.66   761.71   766.81   822.23   842.88
                              894.27  1000.03  1088.48  1130.08  1273.81
                             1300.74  1331.08  1342.47  1461.42  1614.20
                             1634.50  1651.16  1726.65  1772.40  1775.93
                             1858.68  1932.10  2081.17  2098.01  2304.52
                             2349.42  3392.98  4653.31  4657.11  4665.68

 Zero-point correction=                           0.094756 (Hartree/Particle)
 Thermal correction to Energy=                    0.107607
 Thermal correction to Enthalpy=                  0.108551
 Thermal correction to Gibbs Free Energy=         0.051721
 Sum of electronic and zero-point Energies=          -3630.752645
 Sum of electronic and thermal Energies=             -3630.739794
 Sum of electronic and thermal Enthalpies=           -3630.738849
 Sum of electronic and thermal Free Energies=        -3630.795680

                     E (Thermal)             CV                S
                      KCal/Mol        Cal/Mol-Kelvin    Cal/Mol-Kelvin
 Total                   67.525             45.357            119.611
 Electronic               0.000              0.000              0.000
 Translational            0.889              2.981             42.797
 Rotational               0.889              2.981             33.651
 Vibrational             65.747             39.396             43.163
 Vibration     1          0.593              1.986              7.213
 Vibration     2          0.594              1.981              5.213
 Vibration     3          0.596              1.975              4.575
 Vibration     4          0.607              1.939              3.218
 Vibration     5          0.610              1.930              3.051
 Vibration     6          0.620              1.897              2.604
 Vibration     7          0.632              1.858              2.261
 Vibration     8          0.643              1.822              2.023
 Vibration     9          0.677              1.719              1.561
 Vibration    10          0.693              1.672              1.413
 Vibration    11          0.707              1.633              1.305
 Vibration    12          0.736              1.551              1.114
 Vibration    13          0.770              1.459              0.945
 Vibration    14          0.804              1.372              0.812
 Vibration    15          0.813              1.350              0.781
 Vibration    16          0.823              1.325              0.748
 Vibration    17          0.884              1.185              0.589
 Vibration    18          0.888              1.177              0.581
 Vibration    19          0.928              1.093              0.501
 Vibration    20          0.943              1.062              0.475

 Optimization completed.
    -- Stationary point found.
 Normal termination of Gaussian 16 at Tue Sep 17 09:48:05 2024.

 ----------------------------------------------------------------------
 #p M062X/def2tzvp geom=check guess=read scf(xqc,tight) integral(grid=u
 ltrafine) scrf(SMD, solvent=1,4-Dioxane) polar prop=efg volume
 ----------------------------------------------------------------------

 ---
 spe
 ---
 Structure from the checkpoint file:  "smiles_00068_conf_9.chk"
 Charge =  0 Multiplicity = 1

 SCF Done:  E(RM062X) =  -3633.33945885     A.U. after   13 cycles

  Exact polarizability:     186.326      -3.810     192.941     -16.285       6.412      97.793
 Approx polarizability:     194.495      -3.042     214.902     -17.955       7.713     122.428

 Normal termination of Gaussian 16 at Tue Sep 17 10:42:39 2024.
 Gaussian 16:  ES64L-G16RevC.02  7-Dec-2021

 ----------------------------------------------------------------------
 #p M062X/def2tzvp geom=check guess=read scf(xqc,tight) integral(grid=u
 ltrafine) scrf(SMD, solvent=1,4-Dioxane) nmr=giao
 ----------------------------------------------------------------------

 ---
 spe
 ---
 Structure from the checkpoint file:  "smiles_00068_conf_9.chk"
 Charge =  0 Multiplicity = 1

                         Standard orientation:
 ---------------------------------------------------------------------
 Center     Atomic      Atomic             Coordinates (Angstroms)
 Number     Number       Type             X           Y           Z
 ---------------------------------------------------------------------
      1          7           0       -1.879634    4.476612    0.463199
      2          6           0       -1.517886    3.391642    0.255083
      3          6           0       -1.070206    2.054835   -0.003535
      4          6           0       -1.967257    0.985374    0.132058
      5          6           0       -1.516428   -0.305619   -0.123598
      6         35           0       -2.724701   -1.764651    0.054845
      7          6           0       -0.203424   -0.552639   -0.517427
      8          6           0        0.684417    0.522939   -0.636715
      9         16           0        2.371932    0.243400   -1.173143
     10          6           0        3.014610   -0.535654    0.350477
     11          9           0        2.883385    0.255373    1.424450
     12          9           0        2.397610   -1.697326    0.634781
     13          9           0        4.315838   -0.786148    0.154037
     14          6           0        0.261539    1.826912   -0.381062
     15          1           0       -2.992755    1.164482    0.429127
     16          1           0        0.127345   -1.562066   -0.723246
     17          1           0        0.952774    2.655849   -0.468671
 ---------------------------------------------------------------------

 SCF Done:  E(RM062X) =  -3633.33945885     A.U. after    1 cycles

      1  N    Isotropic =   -86.6833   Anisotropy =   466.0657

      2  C    Isotropic =    51.5454   Anisotropy =   378.4598

      3  C    Isotropic =    48.3692   Anisotropy =   170.6347

      4  C    Isotropic =    22.1582   Anisotropy =   198.8786

      5  C    Isotropic =    22.2667   Anisotropy =   157.6623

      6  Br   Isotropic =  2020.0563   Anisotropy =  1343.7500

      7  C    Isotropic =    16.2470   Anisotropy =   185.3668

      8  C    Isotropic =    31.5217   Anisotropy =   180.0005

      9  S    Isotropic =   283.4642   Anisotropy =   357.7738

     10  C    Isotropic =    39.9594   Anisotropy =    19.5406

     11  F    Isotropic =   215.7959   Anisotropy =   157.1194

     12  F    Isotropic =   214.8972   Anisotropy =   158.8204

     13  F    Isotropic =   226.4162   Anisotropy =   149.2535

     14  C    Isotropic =    20.6302   Anisotropy =   204.1601

     15  H    Isotropic =    23.1672   Anisotropy =    11.5175

     16  H    Isotropic =    22.9524   Anisotropy =    14.3268

     17  H    Isotropic =    23.1425   Anisotropy =    10.0590

 The electronic state is 1-A.
 Alpha  occ. eigenvalues -- -485.39617 -89.94944 -63.38089 -57.20042 -57.19794
 Alpha  occ. eigenvalues --  -57.19786 -25.30462 -25.30121 -25.30113 -14.77555
 Alpha  occ. eigenvalues --  -10.83582 -10.63574 -10.62034 -10.61879 -10.60138
 Alpha  occ. eigenvalues --  -10.59820 -10.59649 -10.59539  -9.04733  -8.30800
 Alpha  occ. eigenvalues --   -6.87168  -6.86250  -6.86223  -6.22770  -6.22564
 Alpha  occ. eigenvalues --   -6.22199  -2.90545  -2.90214  -2.90184  -2.89329
 Alpha  occ. eigenvalues --   -2.89329  -1.48586  -1.39808  -1.39350  -1.04006
 Alpha  occ. eigenvalues --   -1.01783  -0.94606  -0.92922  -0.87802  -0.85054
 Alpha  occ. eigenvalues --   -0.80224  -0.76745  -0.72185  -0.71280  -0.70931
 Alpha  occ. eigenvalues --   -0.66813  -0.62790  -0.60274  -0.59610  -0.59441
 Alpha  occ. eigenvalues --   -0.58653  -0.55985  -0.55488  -0.53629  -0.51706
 Alpha  occ. eigenvalues --   -0.51440  -0.51027  -0.47637  -0.46429  -0.45388
 Alpha  occ. eigenvalues --   -0.44957  -0.43906  -0.41725  -0.39784  -0.37202
 Alpha  occ. eigenvalues --   -0.35696  -0.33689  -0.32700
 Alpha virt. eigenvalues --   -0.05340  -0.03264   0.00824   0.03164   0.05408
 Alpha virt. eigenvalues --    0.07156   0.07986   0.09402   0.10211   0.11426
 Alpha virt. eigenvalues --    0.12637   0.13695   0.14463   0.14943   0.15294

 Mulliken charges:
               1
     1  N   -0.025015
     2  C   -0.216876
     3  C    0.231643
     4  C   -0.198890
     5  C    0.060289
     6  Br  -0.065911
     7  C   -0.122455
     8  C   -0.035495
     9  S   -0.005454
    10  C    0.449941
    11  F   -0.162057
    12  F   -0.168278
    13  F   -0.160356
    14  C   -0.197409
    15  H    0.208671
    16  H    0.204499
    17  H    0.203152
 Sum of Mulliken charges =   0.00000

 Dipole moment (field-independent basis, Debye):
    X=              0.1699    Y=             -2.5473    Z=             -1.3695  Tot=              2.8971
 Quadrupole moment (field-independent basis, Debye-Ang):
   XX=           -101.5240   YY=           -117.8024   ZZ=            -98.7823
   XY=              9.9352   XZ=             -1.3764   YZ=             -3.0418

 Normal termination of Gaussian 16 at Tue Sep 17 11:01:51 2024.
