 Gaussian 16, Revision C.02,

 ----------------------------------------------------------------------
 #p B3LYP/6-31G(d,p) EmpiricalDispersion=GD3BJ opt freq scf(xqc,tight)
 integral(grid=ultrafine)
 ----------------------------------------------------------------------

 ----------------------------------
 opt-freq conformers_unique/conf_ah
 ----------------------------------
 Symbolic Z-matrix:
 Charge =  0 Multiplicity = 1

 SCF Done:  E(RB3LYP) =  -3630.84458235     A.U. after   15 cycles
 SCF Done:  E(RB3LYP) =  -3630.84707119     A.U. after   13 cycles
 SCF Done:  E(RB3LYP) =  -3630.84712385     A.U. after   12 cycles
 SCF Done:  E(RB3LYP) =  -3630.84723740     A.U. after   13 cycles
 SCF Done:  E(RB3LYP) =  -3630.84730394     A.U. after   11 cycles
 SCF Done:  E(RB3LYP) =  -3630.84731464     A.U. after   11 cycles
 SCF Done:  E(RB3LYP) =  -3630.84733236     A.U. after   11 cycles
 SCF Done:  E(RB3LYP) =  -3630.84733463     A.U. after   11 cycles
 SCF Done:  E(RB3LYP) =  -3630.84733509     A.U. after    9 cycles
 SCF Done:  E(RB3LYP) =  -3630.84733520     A.U. after    8 cycles
 Optimization completed.
    -- Stationary point found.
 Normal termination of Gaussian 16 at Tue Sep 17 09:45:42 2024.

 ----------------------------------------------------------------------
 #P Geom=AllCheck Guess=TCheck SCRF=Check GenChk RB3LYP/6-31G(d,p) Freq
 ----------------------------------------------------------------------

 Structure from the checkpoint file:  "smiles_00068_conf_7.chk"
 ----------------------------------
 opt-freq conformers_unique/conf_ah
 ----------------------------------
 Charge =  0 Multiplicity = 1

 SCF Done:  E(RB3LYP) =  -3630.84733520     A.U. after    1 cycles

                      1                      2                      3
                      A                      A                      A
 Frequencies --     12.7175                40.6187                59.3437
 Red. masses --     18.3714                18.6811                14.1301
 Frc consts  --      0.0018                 0.0182                 0.0293
 IR Inten    --      0.0672                 0.1230                 0.7799

                      4                      5                      6
                      A                      A                      A
 Frequencies --    113.3661               128.8173               148.0741
 Red. masses --     14.4145                10.1754                20.0542
 Frc consts  --      0.1091                 0.0995                 0.2591
 IR Inten    --      3.8496                 4.0764                 0.2631

                      7                      8                      9
                      A                      A                      A
 Frequencies --    182.2848               212.9821               272.9521
 Red. masses --      5.1496                 5.0575                15.8731
 Frc consts  --      0.1008                 0.1352                 0.6968
 IR Inten    --      1.2178                 1.5637                 0.3952

                     10                     11                     12
                      A                      A                      A
 Frequencies --    299.2000               325.6081               367.7045
 Red. masses --      9.9467                14.5850                 8.8622
 Frc consts  --      0.5246                 0.9111                 0.7060
 IR Inten    --      3.1977                 1.2342                 0.6781

                     13                     14                     15
                      A                      A                      A
 Frequencies --    405.0394               439.3526               455.1606
 Red. masses --      6.5078                12.8666                16.7902
 Frc consts  --      0.6290                 1.4633                 2.0494
 IR Inten    --      3.2003                 2.4313                 4.0180

                     16                     17                     18
                      A                      A                      A
 Frequencies --    465.6167               529.4820               533.3900
 Red. masses --      8.4786                 9.5273                16.3470
 Frc consts  --      1.0830                 1.5737                 2.7402
 IR Inten    --      0.0075                 1.6650                 1.1406

                     19                     20                     21
                      A                      A                      A
 Frequencies --    574.7470               585.2604               618.9167
 Red. masses --      8.6121                 7.2796                 7.1954
 Frc consts  --      1.6761                 1.4691                 1.6239
 IR Inten    --      2.0709                 0.6934                 1.3793

                     22                     23                     24
                      A                      A                      A
 Frequencies --    694.5507               756.6348               785.2228
 Red. masses --      2.4208                17.5758                10.9198
 Frc consts  --      0.6881                 5.9284                 3.9669
 IR Inten    --     16.0062                22.4335                46.8553

                     25                     26                     27
                      A                      A                      A
 Frequencies --    886.1515               902.2110               923.6082
 Red. masses --      9.6631                 1.5539                 1.3985
 Frc consts  --      4.4708                 0.7452                 0.7029
 IR Inten    --     11.4062                17.5635                 4.8176

                     28                     29                     30
                      A                      A                      A
 Frequencies --    937.1480              1015.9261              1122.1500
 Red. masses --      1.3687                 6.1603                 7.7942
 Frc consts  --      0.7082                 3.7461                 5.7826
 IR Inten    --      0.7690                 1.6434               382.2081

                     31                     32                     33
                      A                      A                      A
 Frequencies --   1135.3223              1147.3311              1201.4156
 Red. masses --      1.7526                 1.7737                12.9357
 Frc consts  --      1.3310                 1.3757                11.0009
 IR Inten    --     31.6196                55.8094               206.1436

                     34                     35                     36
                      A                      A                      A
 Frequencies --   1231.2099              1234.9340              1291.1116
 Red. masses --     10.1013                 4.5489                 1.4860
 Frc consts  --      9.0218                 4.0874                 1.4595
 IR Inten    --    195.9207                49.7066                 2.2008

                     37                     38                     39
                      A                      A                      A
 Frequencies --   1342.4067              1444.8811              1458.8692
 Red. masses --      3.7350                 3.0597                 3.3468
 Frc consts  --      3.9656                 3.7635                 4.1968
 IR Inten    --      0.4389                23.5059                11.8646

                     40                     41                     42
                      A                      A                      A
 Frequencies --   1602.6722              1632.1647              2358.6362
 Red. masses --      5.9911                 6.0331                12.6795
 Frc consts  --      9.0666                 9.4694                41.5599
 IR Inten    --     60.9156                10.5502                13.8757

                     43                     44                     45
                      A                      A                      A
 Frequencies --   3234.3385              3236.6286              3241.5437
 Red. masses --      1.0927                 1.0932                 1.0931
 Frc consts  --      6.7347                 6.7472                 6.7671
 IR Inten    --      2.0566                 1.1159                 1.4662

 - Thermochemistry -
 -------------------
 Temperature   298.150 Kelvin.  Pressure   1.00000 Atm.
 Atom     1 has atomic number  7 and mass  14.00307

 Molecular mass:   280.91217 amu.
 Principal axes and moments of inertia in atomic units:
                           1         2         3
     Eigenvalues --  3082.611877043.964669327.23378
           X            0.99962  -0.02754  -0.00249
           Y            0.02756   0.99960   0.00554
           Z            0.00233  -0.00561   0.99998
 This molecule is an asymmetric top.
 Rotational symmetry number  1.
 Warning -- assumption of classical behavior for rotation
           may cause significant error
 Rotational temperatures (Kelvin)      0.02810     0.01230     0.00929
 Rotational constants (GHZ):           0.58546     0.25621     0.19349
 Zero-point vibrational energy     248749.7 (Joules/Mol)
                                   59.45261 (Kcal/Mol)
 Warning -- explicit consideration of  21 degrees of freedom as
           vibrations may cause significant error
 Vibrational temperatures:     18.30    58.44    85.38   163.11   185.34
          (Kelvin)            213.05   262.27   306.43   392.72   430.48
                              468.48   529.04   582.76   632.13   654.87
                              669.92   761.81   767.43   826.93   842.06
                              890.48   999.30  1088.63  1129.76  1274.97
                             1298.08  1328.87  1348.35  1461.69  1614.52
                             1633.48  1650.75  1728.57  1771.44  1776.79
                             1857.62  1931.42  2078.86  2098.99  2305.89
                             2348.32  3393.55  4653.49  4656.79  4663.86

 Zero-point correction=                           0.094744 (Hartree/Particle)
 Thermal correction to Energy=                    0.107601
 Thermal correction to Enthalpy=                  0.108545
 Thermal correction to Gibbs Free Energy=         0.051576
 Sum of electronic and zero-point Energies=          -3630.752591
 Sum of electronic and thermal Energies=             -3630.739734
 Sum of electronic and thermal Enthalpies=           -3630.738790
 Sum of electronic and thermal Free Energies=        -3630.795759

                     E (Thermal)             CV                S
                      KCal/Mol        Cal/Mol-Kelvin    Cal/Mol-Kelvin
 Total                   67.521             45.361            119.902
 Electronic               0.000              0.000              0.000
 Translational            0.889              2.981             42.797
 Rotational               0.889              2.981             33.670
 Vibrational             65.743             39.400             43.434
 Vibration     1          0.593              1.987              7.533
 Vibration     2          0.594              1.981              5.229
 Vibration     3          0.597              1.974              4.479
 Vibration     4          0.607              1.938              3.210
 Vibration     5          0.611              1.924              2.964
 Vibration     6          0.617              1.905              2.697
 Vibration     7          0.630              1.864              2.305
 Vibration     8          0.644              1.821              2.018
 Vibration     9          0.676              1.723              1.577
 Vibration    10          0.692              1.675              1.421
 Vibration    11          0.710              1.624              1.282
 Vibration    12          0.740              1.539              1.089
 Vibration    13          0.770              1.459              0.944
 Vibration    14          0.799              1.384              0.829
 Vibration    15          0.813              1.349              0.780
 Vibration    16          0.823              1.326              0.750
 Vibration    17          0.884              1.185              0.588
 Vibration    18          0.888              1.176              0.580
 Vibration    19          0.931              1.086              0.495
 Vibration    20          0.942              1.063              0.476
 Vibration    21          0.979              0.992              0.418

 Optimization completed.
    -- Stationary point found.
 Normal termination of Gaussian 16 at Tue Sep 17 09:47:07 2024.

 ----------------------------------------------------------------------
 #p M062X/def2tzvp geom=check guess=read scf(xqc,tight) integral(grid=u
 ltrafine) scrf(SMD, solvent=1,4-Dioxane) polar prop=efg volume
 ----------------------------------------------------------------------

 ---
 spe
 ---
 Structure from the checkpoint file:  "smiles_00068_conf_7.chk"
 Charge =  0 Multiplicity = 1

 SCF Done:  E(RM062X) =  -3633.33952834     A.U. after   13 cycles

  Exact polarizability:     189.061       2.028     189.325     -14.152       9.093      98.016
 Approx polarizability:     196.209       4.144     212.692     -15.531      10.644     122.492

 Normal termination of Gaussian 16 at Tue Sep 17 10:38:21 2024.
 Gaussian 16:  ES64L-G16RevC.02  7-Dec-2021

 ----------------------------------------------------------------------
 #p M062X/def2tzvp geom=check guess=read scf(xqc,tight) integral(grid=u
 ltrafine) scrf(SMD, solvent=1,4-Dioxane) nmr=giao
 ----------------------------------------------------------------------

 ---
 spe
 ---
 Structure from the checkpoint file:  "smiles_00068_conf_7.chk"
 Charge =  0 Multiplicity = 1

                         Standard orientation:
 ---------------------------------------------------------------------
 Center     Atomic      Atomic             Coordinates (Angstroms)
 Number     Number       Type             X           Y           Z
 ---------------------------------------------------------------------
      1          7           0       -0.817884    4.555940    0.251052
      2          6           0       -0.741214    3.406991    0.092122
      3          6           0       -0.646029    1.990357   -0.104590
      4          6           0       -1.779651    1.186733    0.093403
      5          6           0       -1.672655   -0.185105   -0.103424
      6         35           0       -3.201277   -1.286670    0.161589
      7          6           0       -0.466546   -0.772080   -0.483607
      8          6           0        0.653245    0.041132   -0.682993
      9         16           0        2.190775   -0.710731   -1.217188
     10          6           0        3.094079   -0.616756    0.369363
     11          9           0        4.297006   -1.175414    0.180621
     12          9           0        3.273824    0.649880    0.783672
     13          9           0        2.463833   -1.270910    1.355647
     14          6           0        0.572370    1.422790   -0.501930
     15          1           0       -2.720346    1.631145    0.392750
     16          1           0       -0.395680   -1.843887   -0.619425
     17          1           0        1.439973    2.049950   -0.660833
 ---------------------------------------------------------------------

 SCF Done:  E(RM062X) =  -3633.33952834     A.U. after    1 cycles

      1  N    Isotropic =   -86.7446   Anisotropy =   466.1509

      2  C    Isotropic =    51.4394   Anisotropy =   378.3907

      3  C    Isotropic =    48.2728   Anisotropy =   170.6182

      4  C    Isotropic =    22.1424   Anisotropy =   199.0357

      5  C    Isotropic =    22.3457   Anisotropy =   157.7445

      6  Br   Isotropic =  2019.9796   Anisotropy =  1342.7360

      7  C    Isotropic =    16.2790   Anisotropy =   180.4546

      8  C    Isotropic =    31.7459   Anisotropy =   180.2254

      9  S    Isotropic =   281.8107   Anisotropy =   362.4553

     10  C    Isotropic =    40.2323   Anisotropy =    19.2111

     11  F    Isotropic =   226.4907   Anisotropy =   149.6097

     12  F    Isotropic =   215.4692   Anisotropy =   158.1295

     13  F    Isotropic =   215.7587   Anisotropy =   157.4712

     14  C    Isotropic =    19.5363   Anisotropy =   209.0198

     15  H    Isotropic =    23.1754   Anisotropy =    11.4897

     16  H    Isotropic =    23.0674   Anisotropy =    13.4547

     17  H    Isotropic =    23.0211   Anisotropy =    10.9163

 The electronic state is 1-A.
 Alpha  occ. eigenvalues -- -485.39655 -89.94918 -63.38127 -57.20080 -57.19832
 Alpha  occ. eigenvalues --  -57.19824 -25.30439 -25.30097 -25.30088 -14.77536
 Alpha  occ. eigenvalues --  -10.83552 -10.63579 -10.62015 -10.61886 -10.60116
 Alpha  occ. eigenvalues --  -10.59823 -10.59635 -10.59594  -9.04771  -8.30774
 Alpha  occ. eigenvalues --   -6.87206  -6.86288  -6.86261  -6.22744  -6.22539
 Alpha  occ. eigenvalues --   -6.22173  -2.90582  -2.90252  -2.90222  -2.89367
 Alpha  occ. eigenvalues --   -2.89367  -1.48563  -1.39783  -1.39333  -1.03995
 Alpha  occ. eigenvalues --   -1.01782  -0.94621  -0.92899  -0.87845  -0.85028
 Alpha  occ. eigenvalues --   -0.80205  -0.76661  -0.72246  -0.71251  -0.71145
 Alpha  occ. eigenvalues --   -0.66413  -0.62969  -0.60135  -0.59597  -0.59542
 Alpha  occ. eigenvalues --   -0.58657  -0.55952  -0.55506  -0.53608  -0.51639
 Alpha  occ. eigenvalues --   -0.51453  -0.51036  -0.47764  -0.46375  -0.45317
 Alpha  occ. eigenvalues --   -0.44900  -0.43978  -0.41720  -0.39746  -0.37235
 Alpha  occ. eigenvalues --   -0.35509  -0.33920  -0.32686
 Alpha virt. eigenvalues --   -0.05167  -0.03575   0.00844   0.03171   0.05721
 Alpha virt. eigenvalues --    0.07257   0.08008   0.08987   0.10061   0.11406
 Alpha virt. eigenvalues --    0.12684   0.13578   0.14257   0.15187   0.15395

 Mulliken charges:
               1
     1  N   -0.024651
     2  C   -0.217626
     3  C    0.232330
     4  C   -0.199512
     5  C    0.065496
     6  Br  -0.066399
     7  C   -0.135811
     8  C   -0.033198
     9  S   -0.007867
    10  C    0.449801
    11  F   -0.160467
    12  F   -0.167093
    13  F   -0.162874
    14  C   -0.189552
    15  H    0.208578
    16  H    0.200540
    17  H    0.208306
 Sum of Mulliken charges =  -0.00000

 Dipole moment (field-independent basis, Debye):
    X=             -0.7986    Y=             -3.1495    Z=             -1.2656  Tot=              3.4869
 Quadrupole moment (field-independent basis, Debye-Ang):
   XX=            -99.1586   YY=           -119.3384   ZZ=            -98.4466
   XY=              3.7995   XZ=             -2.1121   YZ=             -1.0882

 Normal termination of Gaussian 16 at Tue Sep 17 10:56:37 2024.
