 Gaussian 16, Revision C.02,

 ----------------------------------------------------------------------
 #p B3LYP/6-31G(d,p) EmpiricalDispersion=GD3BJ opt freq scf(xqc,tight)
 integral(grid=ultrafine)
 ----------------------------------------------------------------------

 ----------------------------------
 opt-freq conformers_unique/conf_aa
 ----------------------------------
 Symbolic Z-matrix:
 Charge =  0 Multiplicity = 1

 SCF Done:  E(RB3LYP) =  -3630.84489979     A.U. after   15 cycles
 SCF Done:  E(RB3LYP) =  -3630.84723696     A.U. after   13 cycles
 SCF Done:  E(RB3LYP) =  -3630.84732378     A.U. after   12 cycles
 SCF Done:  E(RB3LYP) =  -3630.84734208     A.U. after   12 cycles
 SCF Done:  E(RB3LYP) =  -3630.84738145     A.U. after   11 cycles
 SCF Done:  E(RB3LYP) =  -3630.84739285     A.U. after   11 cycles
 SCF Done:  E(RB3LYP) =  -3630.84739817     A.U. after   11 cycles
 SCF Done:  E(RB3LYP) =  -3630.84740011     A.U. after   11 cycles
 SCF Done:  E(RB3LYP) =  -3630.84740078     A.U. after    8 cycles
 SCF Done:  E(RB3LYP) =  -3630.84740086     A.U. after    8 cycles
 SCF Done:  E(RB3LYP) =  -3630.84740090     A.U. after    8 cycles
 SCF Done:  E(RB3LYP) =  -3630.84740090     A.U. after    8 cycles
 Optimization completed.
    -- Stationary point found.
 Normal termination of Gaussian 16 at Tue Sep 17 09:45:39 2024.

 ----------------------------------------------------------------------
 #P Geom=AllCheck Guess=TCheck SCRF=Check GenChk RB3LYP/6-31G(d,p) Freq
 ----------------------------------------------------------------------

 Structure from the checkpoint file:  "smiles_00068_conf_0.chk"
 ----------------------------------
 opt-freq conformers_unique/conf_aa
 ----------------------------------
 Charge =  0 Multiplicity = 1

 SCF Done:  E(RB3LYP) =  -3630.84740090     A.U. after    1 cycles

                      1                      2                      3
                      A                      A                      A
 Frequencies --     14.8988                40.9170                56.4761
 Red. masses --     17.2370                17.1903                17.4603
 Frc consts  --      0.0023                 0.0170                 0.0328
 IR Inten    --      0.4139                 0.2119                 0.5885

                      4                      5                      6
                      A                      A                      A
 Frequencies --    112.8763               123.0957               155.4970
 Red. masses --     14.9670                10.7696                15.1872
 Frc consts  --      0.1124                 0.0961                 0.2164
 IR Inten    --      3.7930                 3.5583                 0.5474

                      7                      8                      9
                      A                      A                      A
 Frequencies --    186.5978               212.4130               275.5229
 Red. masses --      5.1237                 5.2463                15.2880
 Frc consts  --      0.1051                 0.1395                 0.6838
 IR Inten    --      1.1564                 1.5275                 0.3154

                     10                     11                     12
                      A                      A                      A
 Frequencies --    300.7671               321.0592               361.9593
 Red. masses --      9.7518                15.0926                 9.3957
 Frc consts  --      0.5197                 0.9166                 0.7253
 IR Inten    --      2.9688                 1.8164                 0.2252

                     13                     14                     15
                      A                      A                      A
 Frequencies --    404.9489               444.8278               455.0460
 Red. masses --      6.4366                12.5267                16.1633
 Frc consts  --      0.6219                 1.4604                 1.9719
 IR Inten    --      3.7168                 1.9365                 4.3248

                     16                     17                     18
                      A                      A                      A
 Frequencies --    466.1360               529.4111               532.9579
 Red. masses --      8.5812                 8.8338                17.8456
 Frc consts  --      1.0986                 1.4588                 2.9865
 IR Inten    --      0.2176                 1.3175                 1.5104

                     19                     20                     21
                      A                      A                      A
 Frequencies --    571.4837               585.8135               621.5444
 Red. masses --      8.7820                 7.3505                 7.0435
 Frc consts  --      1.6899                 1.4862                 1.6032
 IR Inten    --      2.5366                 0.2616                 1.4786

                     22                     23                     24
                      A                      A                      A
 Frequencies --    695.0492               756.5443               785.4595
 Red. masses --      2.4295                17.5319                11.0301
 Frc consts  --      0.6915                 5.9122                 4.0094
 IR Inten    --     15.9422                21.9914                40.1047

                     25                     26                     27
                      A                      A                      A
 Frequencies --    885.3584               904.0560               925.1386
 Red. masses --      9.7966                 1.5729                 1.3663
 Frc consts  --      4.5245                 0.7574                 0.6890
 IR Inten    --     17.9636                19.2548                 0.4135

                     28                     29                     30
                      A                      A                      A
 Frequencies --    933.0609              1015.7470              1121.9570
 Red. masses --      1.3833                 6.1561                 8.0830
 Frc consts  --      0.7096                 3.7422                 5.9948
 IR Inten    --      3.0533                 3.3494               397.7312

                     31                     32                     33
                      A                      A                      A
 Frequencies --   1136.0397              1147.6201              1200.0560
 Red. masses --      1.7872                 1.7304                12.4195
 Frc consts  --      1.3590                 1.3427                10.5380
 IR Inten    --     10.0269                54.1706               209.6344

                     34                     35                     36
                      A                      A                      A
 Frequencies --   1231.9203              1234.3546              1291.8484
 Red. masses --     12.2854                 4.2720                 1.4963
 Frc consts  --     10.9851                 3.8350                 1.4713
 IR Inten    --    225.0016                25.1604                 0.4210

                     37                     38                     39
                      A                      A                      A
 Frequencies --   1342.8943              1446.4811              1458.2066
 Red. masses --      3.6540                 3.0532                 3.3590
 Frc consts  --      3.8824                 3.7639                 4.2083
 IR Inten    --      0.3587                22.6445                12.1860

                     40                     41                     42
                      A                      A                      A
 Frequencies --   1601.7503              1632.9370              2358.3094
 Red. masses --      5.8879                 6.0953                12.6794
 Frc consts  --      8.9003                 9.5760                41.5481
 IR Inten    --     63.0038                 9.7703                14.6343

                     43                     44                     45
                      A                      A                      A
 Frequencies --   3234.2492              3236.8670              3242.7890
 Red. masses --      1.0930                 1.0932                 1.0927
 Frc consts  --      6.7363                 6.7481                 6.7701
 IR Inten    --      1.1238                 1.1967                 2.5860

 - Thermochemistry -
 -------------------
 Temperature   298.150 Kelvin.  Pressure   1.00000 Atm.
 Atom     1 has atomic number  7 and mass  14.00307

 Molecular mass:   280.91217 amu.
 Principal axes and moments of inertia in atomic units:
                           1         2         3
     Eigenvalues --  3438.769066377.937839050.81635
           X            0.99901   0.04417  -0.00452
           Y           -0.04418   0.99902  -0.00264
           Z            0.00439   0.00283   0.99999
 This molecule is an asymmetric top.
 Rotational symmetry number  1.
 Warning -- assumption of classical behavior for rotation
           may cause significant error
 Rotational temperatures (Kelvin)      0.02519     0.01358     0.00957
 Rotational constants (GHZ):           0.52482     0.28297     0.19940
 Zero-point vibrational energy     248781.0 (Joules/Mol)
                                   59.46010 (Kcal/Mol)
 Warning -- explicit consideration of  20 degrees of freedom as
           vibrations may cause significant error
 Vibrational temperatures:     21.44    58.87    81.26   162.40   177.11
          (Kelvin)            223.73   268.47   305.61   396.42   432.74
                              461.93   520.78   582.63   640.01   654.71
                              670.67   761.70   766.81   822.24   842.85
                              894.26  1000.02  1088.50  1130.10  1273.83
                             1300.73  1331.07  1342.47  1461.43  1614.25
                             1634.51  1651.17  1726.61  1772.46  1775.96
                             1858.68  1932.13  2081.16  2098.03  2304.56
                             2349.43  3393.08  4653.36  4657.13  4665.65

 Zero-point correction=                           0.094756 (Hartree/Particle)
 Thermal correction to Energy=                    0.107608
 Thermal correction to Enthalpy=                  0.108552
 Thermal correction to Gibbs Free Energy=         0.051716
 Sum of electronic and zero-point Energies=          -3630.752645
 Sum of electronic and thermal Energies=             -3630.739793
 Sum of electronic and thermal Enthalpies=           -3630.738849
 Sum of electronic and thermal Free Energies=        -3630.795685

                     E (Thermal)             CV                S
                      KCal/Mol        Cal/Mol-Kelvin    Cal/Mol-Kelvin
 Total                   67.525             45.357            119.621
 Electronic               0.000              0.000              0.000
 Translational            0.889              2.981             42.797
 Rotational               0.889              2.981             33.651
 Vibrational             65.747             39.396             43.174
 Vibration     1          0.593              1.986              7.219
 Vibration     2          0.594              1.981              5.214
 Vibration     3          0.596              1.975              4.577
 Vibration     4          0.607              1.939              3.219
 Vibration     5          0.610              1.930              3.051
 Vibration     6          0.620              1.897              2.604
 Vibration     7          0.632              1.858              2.261
 Vibration     8          0.643              1.822              2.023
 Vibration     9          0.677              1.719              1.561
 Vibration    10          0.693              1.672              1.413
 Vibration    11          0.707              1.633              1.305
 Vibration    12          0.736              1.551              1.114
 Vibration    13          0.770              1.459              0.945
 Vibration    14          0.804              1.372              0.812
 Vibration    15          0.813              1.350              0.781
 Vibration    16          0.823              1.325              0.748
 Vibration    17          0.884              1.185              0.589
 Vibration    18          0.888              1.177              0.581
 Vibration    19          0.928              1.093              0.501
 Vibration    20          0.943              1.062              0.475

 Optimization completed.
    -- Stationary point found.
 Normal termination of Gaussian 16 at Tue Sep 17 09:47:10 2024.

 ----------------------------------------------------------------------
 #p M062X/def2tzvp geom=check guess=read scf(xqc,tight) integral(grid=u
 ltrafine) scrf(SMD, solvent=1,4-Dioxane) polar prop=efg volume
 ----------------------------------------------------------------------

 ---
 spe
 ---
 Structure from the checkpoint file:  "smiles_00068_conf_0.chk"
 Charge =  0 Multiplicity = 1

 SCF Done:  E(RM062X) =  -3633.33946151     A.U. after   13 cycles

  Exact polarizability:     186.321       3.805     192.937     -16.284      -6.416      97.794
 Approx polarizability:     194.490       3.037     214.899     -17.954      -7.717     122.429

 Normal termination of Gaussian 16 at Tue Sep 17 10:37:50 2024.
 Gaussian 16:  ES64L-G16RevC.02  7-Dec-2021

 ----------------------------------------------------------------------
 #p M062X/def2tzvp geom=check guess=read scf(xqc,tight) integral(grid=u
 ltrafine) scrf(SMD, solvent=1,4-Dioxane) nmr=giao
 ----------------------------------------------------------------------

 ---
 spe
 ---
 Structure from the checkpoint file:  "smiles_00068_conf_0.chk"
 Charge =  0 Multiplicity = 1

                         Standard orientation:
 ---------------------------------------------------------------------
 Center     Atomic      Atomic             Coordinates (Angstroms)
 Number     Number       Type             X           Y           Z
 ---------------------------------------------------------------------
      1          7           0        1.878897    4.476759   -0.463154
      2          6           0        1.517382    3.391728   -0.255005
      3          6           0        1.069913    2.054854    0.003590
      4          6           0        1.967150    0.985540   -0.131994
      5          6           0        1.516522   -0.305517    0.123612
      6         35           0        2.725008   -1.764361   -0.054925
      7          6           0        0.203562   -0.552762    0.517436
      8          6           0       -0.684436    0.522656    0.636808
      9         16           0       -2.371843    0.242780    1.173309
     10          6           0       -3.014641   -0.535749   -0.350495
     11          9           0       -4.315790   -0.786454   -0.154007
     12          9           0       -2.883616    0.255686   -1.424236
     13          9           0       -2.397539   -1.697231   -0.635296
     14          6           0       -0.261779    1.826711    0.381128
     15          1           0        2.992634    1.164808   -0.429008
     16          1           0       -0.127069   -1.562251    0.723178
     17          1           0       -0.953175    2.655511    0.468710
 ---------------------------------------------------------------------

 SCF Done:  E(RM062X) =  -3633.33946151     A.U. after    1 cycles

      1  N    Isotropic =   -86.6776   Anisotropy =   466.0598

      2  C    Isotropic =    51.5480   Anisotropy =   378.4554

      3  C    Isotropic =    48.3717   Anisotropy =   170.6373

      4  C    Isotropic =    22.1596   Anisotropy =   198.8796

      5  C    Isotropic =    22.2694   Anisotropy =   157.6592

      6  Br   Isotropic =  2020.0549   Anisotropy =  1343.7660

      7  C    Isotropic =    16.2442   Anisotropy =   185.3625

      8  C    Isotropic =    31.5254   Anisotropy =   180.0027

      9  S    Isotropic =   283.4993   Anisotropy =   357.7781

     10  C    Isotropic =    39.9624   Anisotropy =    19.5398

     11  F    Isotropic =   226.4319   Anisotropy =   149.2141

     12  F    Isotropic =   215.7886   Anisotropy =   157.1545

     13  F    Isotropic =   214.9051   Anisotropy =   158.8070

     14  C    Isotropic =    20.6244   Anisotropy =   204.1626

     15  H    Isotropic =    23.1672   Anisotropy =    11.5177

     16  H    Isotropic =    22.9525   Anisotropy =    14.3264

     17  H    Isotropic =    23.1423   Anisotropy =    10.0594

 The electronic state is 1-A.
 Alpha  occ. eigenvalues -- -485.39617 -89.94944 -63.38089 -57.20042 -57.19794
 Alpha  occ. eigenvalues --  -57.19786 -25.30463 -25.30120 -25.30112 -14.77555
 Alpha  occ. eigenvalues --  -10.83582 -10.63574 -10.62034 -10.61879 -10.60138
 Alpha  occ. eigenvalues --  -10.59820 -10.59649 -10.59539  -9.04733  -8.30800
 Alpha  occ. eigenvalues --   -6.87168  -6.86250  -6.86223  -6.22770  -6.22564
 Alpha  occ. eigenvalues --   -6.22198  -2.90545  -2.90214  -2.90184  -2.89329
 Alpha  occ. eigenvalues --   -2.89329  -1.48586  -1.39809  -1.39349  -1.04007
 Alpha  occ. eigenvalues --   -1.01783  -0.94606  -0.92923  -0.87802  -0.85054
 Alpha  occ. eigenvalues --   -0.80224  -0.76745  -0.72185  -0.71280  -0.70931
 Alpha  occ. eigenvalues --   -0.66813  -0.62791  -0.60274  -0.59610  -0.59441
 Alpha  occ. eigenvalues --   -0.58654  -0.55985  -0.55487  -0.53629  -0.51706
 Alpha  occ. eigenvalues --   -0.51440  -0.51027  -0.47637  -0.46429  -0.45388
 Alpha  occ. eigenvalues --   -0.44958  -0.43906  -0.41725  -0.39784  -0.37202
 Alpha  occ. eigenvalues --   -0.35695  -0.33690  -0.32700
 Alpha virt. eigenvalues --   -0.05340  -0.03264   0.00824   0.03165   0.05408
 Alpha virt. eigenvalues --    0.07157   0.07986   0.09402   0.10211   0.11425
 Alpha virt. eigenvalues --    0.12638   0.13694   0.14462   0.14942   0.15295

 Mulliken charges:
               1
     1  N   -0.024997
     2  C   -0.216892
     3  C    0.231650
     4  C   -0.198885
     5  C    0.060290
     6  Br  -0.065914
     7  C   -0.122451
     8  C   -0.035483
     9  S   -0.005467
    10  C    0.449934
    11  F   -0.160340
    12  F   -0.162081
    13  F   -0.168274
    14  C   -0.197406
    15  H    0.208672
    16  H    0.204491
    17  H    0.203155
 Sum of Mulliken charges =  -0.00000

 Dipole moment (field-independent basis, Debye):
    X=             -0.1693    Y=             -2.5477    Z=              1.3698  Tot=              2.8975
 Quadrupole moment (field-independent basis, Debye-Ang):
   XX=           -101.5200   YY=           -117.8047   ZZ=            -98.7823
   XY=             -9.9306   XZ=             -1.3772   YZ=              3.0413

 Normal termination of Gaussian 16 at Tue Sep 17 10:56:08 2024.
