 Gaussian 16, Revision C.02,

 ----------------------------------------------------------------------
 #p B3LYP/6-31G(d,p) EmpiricalDispersion=GD3BJ opt freq scf(xqc,tight)
 integral(grid=ultrafine)
 ----------------------------------------------------------------------

 ----------------------------------
 opt-freq conformers_unique/conf_ab
 ----------------------------------
 Symbolic Z-matrix:
 Charge =  0 Multiplicity = 1

 SCF Done:  E(RB3LYP) =  -3630.84433607     A.U. after   15 cycles
 SCF Done:  E(RB3LYP) =  -3630.84684001     A.U. after   13 cycles
 SCF Done:  E(RB3LYP) =  -3630.84702576     A.U. after   12 cycles
 SCF Done:  E(RB3LYP) =  -3630.84695181     A.U. after   14 cycles
 SCF Done:  E(RB3LYP) =  -3630.84725320     A.U. after   13 cycles
 SCF Done:  E(RB3LYP) =  -3630.84723916     A.U. after   13 cycles
 SCF Done:  E(RB3LYP) =  -3630.84732039     A.U. after   12 cycles
 SCF Done:  E(RB3LYP) =  -3630.84733291     A.U. after   11 cycles
 SCF Done:  E(RB3LYP) =  -3630.84733363     A.U. after   11 cycles
 SCF Done:  E(RB3LYP) =  -3630.84733516     A.U. after    9 cycles
 SCF Done:  E(RB3LYP) =  -3630.84733522     A.U. after    8 cycles
 Optimization completed.
    -- Stationary point found.
 Normal termination of Gaussian 16 at Tue Sep 17 09:45:32 2024.

 ----------------------------------------------------------------------
 #P Geom=AllCheck Guess=TCheck SCRF=Check GenChk RB3LYP/6-31G(d,p) Freq
 ----------------------------------------------------------------------

 Structure from the checkpoint file:  "smiles_00068_conf_1.chk"
 ----------------------------------
 opt-freq conformers_unique/conf_ab
 ----------------------------------
 Charge =  0 Multiplicity = 1

 SCF Done:  E(RB3LYP) =  -3630.84733522     A.U. after    1 cycles

                      1                      2                      3
                      A                      A                      A
 Frequencies --     12.6656                40.5396                59.3317
 Red. masses --     18.3722                18.6848                14.1271
 Frc consts  --      0.0017                 0.0181                 0.0293
 IR Inten    --      0.0671                 0.1219                 0.7796

                      4                      5                      6
                      A                      A                      A
 Frequencies --    113.4216               128.8517               148.0704
 Red. masses --     14.4140                10.1770                20.0544
 Frc consts  --      0.1093                 0.0996                 0.2591
 IR Inten    --      3.8469                 4.0765                 0.2635

                      7                      8                      9
                      A                      A                      A
 Frequencies --    182.2978               212.9781               272.9577
 Red. masses --      5.1491                 5.0575                15.8721
 Frc consts  --      0.1008                 0.1352                 0.6967
 IR Inten    --      1.2186                 1.5639                 0.3956

                     10                     11                     12
                      A                      A                      A
 Frequencies --    299.2204               325.5960               367.7086
 Red. masses --      9.9465                14.5847                 8.8611
 Frc consts  --      0.5247                 0.9110                 0.7059
 IR Inten    --      3.1982                 1.2357                 0.6769

                     13                     14                     15
                      A                      A                      A
 Frequencies --    405.0745               439.3727               455.1551
 Red. masses --      6.5082                12.8648                16.7902
 Frc consts  --      0.6292                 1.4632                 2.0494
 IR Inten    --      3.1992                 2.4328                 4.0174

                     16                     17                     18
                      A                      A                      A
 Frequencies --    465.6156               529.4751               533.4057
 Red. masses --      8.4788                 9.5426                16.2987
 Frc consts  --      1.0830                 1.5762                 2.7322
 IR Inten    --      0.0075                 1.6701                 1.1364

                     19                     20                     21
                      A                      A                      A
 Frequencies --    574.7565               585.2829               618.9288
 Red. masses --      8.6135                 7.2800                 7.1953
 Frc consts  --      1.6765                 1.4693                 1.6240
 IR Inten    --      2.0709                 0.6927                 1.3795

                     22                     23                     24
                      A                      A                      A
 Frequencies --    694.5512               756.6484               785.2328
 Red. masses --      2.4208                17.5754                10.9200
 Frc consts  --      0.6880                 5.9285                 3.9671
 IR Inten    --     16.0058                22.4564                46.8580

                     25                     26                     27
                      A                      A                      A
 Frequencies --    886.1663               902.2204               923.6039
 Red. masses --      9.6630                 1.5539                 1.3984
 Frc consts  --      4.4709                 0.7453                 0.7029
 IR Inten    --     11.4010                17.5721                 4.8072

                     28                     29                     30
                      A                      A                      A
 Frequencies --    937.1336              1015.9266              1122.1541
 Red. masses --      1.3687                 6.1603                 7.7947
 Frc consts  --      0.7082                 3.7461                 5.7830
 IR Inten    --      0.7708                 1.6432               382.1156

                     31                     32                     33
                      A                      A                      A
 Frequencies --   1135.3154              1147.3438              1201.4281
 Red. masses --      1.7526                 1.7736                12.9361
 Frc consts  --      1.3310                 1.3756                11.0015
 IR Inten    --     31.6361                55.7570               206.1334

                     34                     35                     36
                      A                      A                      A
 Frequencies --   1231.3287              1234.9521              1291.1112
 Red. masses --      9.9502                 4.5807                 1.4860
 Frc consts  --      8.8886                 4.1161                 1.4595
 IR Inten    --    193.9221                51.8506                 2.2036

                     37                     38                     39
                      A                      A                      A
 Frequencies --   1342.4049              1444.8948              1458.8578
 Red. masses --      3.7350                 3.0601                 3.3465
 Frc consts  --      3.9656                 3.7640                 4.1963
 IR Inten    --      0.4383                23.5066                11.8619

                     40                     41                     42
                      A                      A                      A
 Frequencies --   1602.6574              1632.1780              2358.5255
 Red. masses --      5.9910                 6.0332                12.6795
 Frc consts  --      9.0663                 9.4697                41.5559
 IR Inten    --     60.9241                10.5401                13.8763

                     43                     44                     45
                      A                      A                      A
 Frequencies --   3234.3736              3236.6510              3241.5041
 Red. masses --      1.0927                 1.0932                 1.0931
 Frc consts  --      6.7349                 6.7473                 6.7670
 IR Inten    --      2.0572                 1.1163                 1.4653

 - Thermochemistry -
 -------------------
 Temperature   298.150 Kelvin.  Pressure   1.00000 Atm.
 Atom     1 has atomic number  7 and mass  14.00307

 Molecular mass:   280.91217 amu.
 Principal axes and moments of inertia in atomic units:
                           1         2         3
     Eigenvalues --  3082.677997043.643839326.93186
           X            0.99962   0.02754   0.00249
           Y           -0.02756   0.99960   0.00554
           Z           -0.00233  -0.00561   0.99998
 This molecule is an asymmetric top.
 Rotational symmetry number  1.
 Warning -- assumption of classical behavior for rotation
           may cause significant error
 Rotational temperatures (Kelvin)      0.02810     0.01230     0.00929
 Rotational constants (GHZ):           0.58545     0.25622     0.19350
 Zero-point vibrational energy     248750.7 (Joules/Mol)
                                   59.45284 (Kcal/Mol)
 Warning -- explicit consideration of  21 degrees of freedom as
           vibrations may cause significant error
 Vibrational temperatures:     18.22    58.33    85.37   163.19   185.39
          (Kelvin)            213.04   262.29   306.43   392.73   430.51
                              468.46   529.05   582.81   632.16   654.87
                              669.92   761.80   767.45   826.95   842.09
                              890.50   999.30  1088.65  1129.77  1275.00
                             1298.09  1328.86  1348.33  1461.69  1614.53
                             1633.47  1650.77  1728.59  1771.61  1776.82
                             1857.62  1931.42  2078.88  2098.97  2305.87
                             2348.34  3393.39  4653.54  4656.82  4663.80

 Zero-point correction=                           0.094744 (Hartree/Particle)
 Thermal correction to Energy=                    0.107602
 Thermal correction to Enthalpy=                  0.108546
 Thermal correction to Gibbs Free Energy=         0.051572
 Sum of electronic and zero-point Energies=          -3630.752591
 Sum of electronic and thermal Energies=             -3630.739734
 Sum of electronic and thermal Enthalpies=           -3630.738789
 Sum of electronic and thermal Free Energies=        -3630.795763

                     E (Thermal)             CV                S
                      KCal/Mol        Cal/Mol-Kelvin    Cal/Mol-Kelvin
 Total                   67.521             45.361            119.912
 Electronic               0.000              0.000              0.000
 Translational            0.889              2.981             42.797
 Rotational               0.889              2.981             33.670
 Vibrational             65.744             39.399             43.445
 Vibration     1          0.593              1.987              7.542
 Vibration     2          0.594              1.981              5.233
 Vibration     3          0.597              1.974              4.479
 Vibration     4          0.607              1.938              3.209
 Vibration     5          0.611              1.924              2.963
 Vibration     6          0.617              1.905              2.697
 Vibration     7          0.630              1.864              2.305
 Vibration     8          0.644              1.821              2.018
 Vibration     9          0.676              1.723              1.577
 Vibration    10          0.692              1.675              1.421
 Vibration    11          0.710              1.624              1.282
 Vibration    12          0.740              1.539              1.089
 Vibration    13          0.770              1.459              0.944
 Vibration    14          0.799              1.384              0.829
 Vibration    15          0.813              1.349              0.780
 Vibration    16          0.823              1.326              0.750
 Vibration    17          0.884              1.185              0.588
 Vibration    18          0.888              1.176              0.580
 Vibration    19          0.931              1.086              0.495
 Vibration    20          0.942              1.063              0.476
 Vibration    21          0.979              0.992              0.418

 Optimization completed.
    -- Stationary point found.
 Normal termination of Gaussian 16 at Tue Sep 17 09:47:16 2024.

 ----------------------------------------------------------------------
 #p M062X/def2tzvp geom=check guess=read scf(xqc,tight) integral(grid=u
 ltrafine) scrf(SMD, solvent=1,4-Dioxane) polar prop=efg volume
 ----------------------------------------------------------------------

 ---
 spe
 ---
 Structure from the checkpoint file:  "smiles_00068_conf_1.chk"
 Charge =  0 Multiplicity = 1

 SCF Done:  E(RM062X) =  -3633.33952875     A.U. after   13 cycles

  Exact polarizability:     189.057      -2.029     189.326      14.152       9.094      98.018
 Approx polarizability:     196.207      -4.145     212.694      15.531      10.646     122.493

 Normal termination of Gaussian 16 at Tue Sep 17 10:40:14 2024.
 Gaussian 16:  ES64L-G16RevC.02  7-Dec-2021

 ----------------------------------------------------------------------
 #p M062X/def2tzvp geom=check guess=read scf(xqc,tight) integral(grid=u
 ltrafine) scrf(SMD, solvent=1,4-Dioxane) nmr=giao
 ----------------------------------------------------------------------

 ---
 spe
 ---
 Structure from the checkpoint file:  "smiles_00068_conf_1.chk"
 Charge =  0 Multiplicity = 1

                         Standard orientation:
 ---------------------------------------------------------------------
 Center     Atomic      Atomic             Coordinates (Angstroms)
 Number     Number       Type             X           Y           Z
 ---------------------------------------------------------------------
      1          7           0        0.817806    4.555959    0.251141
      2          6           0        0.741202    3.407005    0.092103
      3          6           0        0.646006    1.990370   -0.104625
      4          6           0        1.779627    1.186749    0.093373
      5          6           0        1.672603   -0.185092   -0.103422
      6         35           0        3.201219   -1.286685    0.161587
      7          6           0        0.466484   -0.772045   -0.483620
      8          6           0       -0.653302    0.041191   -0.683047
      9         16           0       -2.190792   -0.710650   -1.217254
     10          6           0       -3.094005   -0.616778    0.369375
     11          9           0       -4.296636   -1.176036    0.180870
     12          9           0       -2.463400   -1.270491    1.355721
     13          9           0       -3.274160    0.649861    0.783489
     14          6           0       -0.572411    1.422827   -0.501927
     15          1           0        2.720332    1.631158    0.392684
     16          1           0        0.395616   -1.843853   -0.619397
     17          1           0       -1.440036    2.049988   -0.660733
 ---------------------------------------------------------------------

 SCF Done:  E(RM062X) =  -3633.33952875     A.U. after    1 cycles

      1  N    Isotropic =   -86.7524   Anisotropy =   466.1584

      2  C    Isotropic =    51.4352   Anisotropy =   378.3984

      3  C    Isotropic =    48.2742   Anisotropy =   170.6142

      4  C    Isotropic =    22.1427   Anisotropy =   199.0362

      5  C    Isotropic =    22.3427   Anisotropy =   157.7450

      6  Br   Isotropic =  2019.9687   Anisotropy =  1342.7594

      7  C    Isotropic =    16.2740   Anisotropy =   180.4581

      8  C    Isotropic =    31.7475   Anisotropy =   180.2368

      9  S    Isotropic =   281.8206   Anisotropy =   362.4979

     10  C    Isotropic =    40.2374   Anisotropy =    19.2110

     11  F    Isotropic =   226.5111   Anisotropy =   149.5531

     12  F    Isotropic =   215.7629   Anisotropy =   157.4626

     13  F    Isotropic =   215.4736   Anisotropy =   158.1398

     14  C    Isotropic =    19.5400   Anisotropy =   209.0148

     15  H    Isotropic =    23.1754   Anisotropy =    11.4897

     16  H    Isotropic =    23.0674   Anisotropy =    13.4550

     17  H    Isotropic =    23.0210   Anisotropy =    10.9163

 The electronic state is 1-A.
 Alpha  occ. eigenvalues -- -485.39655 -89.94917 -63.38127 -57.20080 -57.19832
 Alpha  occ. eigenvalues --  -57.19824 -25.30440 -25.30096 -25.30088 -14.77536
 Alpha  occ. eigenvalues --  -10.83552 -10.63579 -10.62014 -10.61886 -10.60116
 Alpha  occ. eigenvalues --  -10.59823 -10.59635 -10.59594  -9.04771  -8.30774
 Alpha  occ. eigenvalues --   -6.87206  -6.86288  -6.86261  -6.22744  -6.22539
 Alpha  occ. eigenvalues --   -6.22172  -2.90582  -2.90251  -2.90222  -2.89367
 Alpha  occ. eigenvalues --   -2.89367  -1.48565  -1.39785  -1.39333  -1.03995
 Alpha  occ. eigenvalues --   -1.01781  -0.94621  -0.92899  -0.87844  -0.85028
 Alpha  occ. eigenvalues --   -0.80206  -0.76661  -0.72246  -0.71251  -0.71146
 Alpha  occ. eigenvalues --   -0.66413  -0.62969  -0.60135  -0.59597  -0.59543
 Alpha  occ. eigenvalues --   -0.58657  -0.55953  -0.55506  -0.53608  -0.51639
 Alpha  occ. eigenvalues --   -0.51453  -0.51036  -0.47764  -0.46375  -0.45316
 Alpha  occ. eigenvalues --   -0.44900  -0.43978  -0.41719  -0.39746  -0.37235
 Alpha  occ. eigenvalues --   -0.35508  -0.33919  -0.32686
 Alpha virt. eigenvalues --   -0.05167  -0.03575   0.00844   0.03171   0.05721
 Alpha virt. eigenvalues --    0.07258   0.08008   0.08988   0.10061   0.11406
 Alpha virt. eigenvalues --    0.12684   0.13579   0.14257   0.15187   0.15396

 Mulliken charges:
               1
     1  N   -0.024680
     2  C   -0.217603
     3  C    0.232323
     4  C   -0.199508
     5  C    0.065495
     6  Br  -0.066403
     7  C   -0.135807
     8  C   -0.033218
     9  S   -0.007875
    10  C    0.449801
    11  F   -0.160443
    12  F   -0.162885
    13  F   -0.167090
    14  C   -0.189526
    15  H    0.208578
    16  H    0.200539
    17  H    0.208303
 Sum of Mulliken charges =  -0.00000

 Dipole moment (field-independent basis, Debye):
    X=              0.7980    Y=             -3.1495    Z=             -1.2658  Tot=              3.4869
 Quadrupole moment (field-independent basis, Debye-Ang):
   XX=            -99.1550   YY=           -119.3391   ZZ=            -98.4470
   XY=             -3.7986   XZ=              2.1120   YZ=             -1.0890

 Normal termination of Gaussian 16 at Tue Sep 17 10:59:19 2024.
