 Gaussian 16, Revision C.02,

 ----------------------------------------------------------------------
 #p B3LYP/6-31G(d,p) EmpiricalDispersion=GD3BJ opt freq scf(xqc,tight)
 integral(grid=ultrafine)
 ----------------------------------------------------------------------

 ----------------------------------
 opt-freq conformers_unique/conf_ad
 ----------------------------------
 Symbolic Z-matrix:
 Charge =  0 Multiplicity = 1

 SCF Done:  E(RB3LYP) =  -3630.84485103     A.U. after   15 cycles
 SCF Done:  E(RB3LYP) =  -3630.84719248     A.U. after   13 cycles
 SCF Done:  E(RB3LYP) =  -3630.84725415     A.U. after   12 cycles
 SCF Done:  E(RB3LYP) =  -3630.84728588     A.U. after   12 cycles
 SCF Done:  E(RB3LYP) =  -3630.84731994     A.U. after   11 cycles
 SCF Done:  E(RB3LYP) =  -3630.84733193     A.U. after   11 cycles
 SCF Done:  E(RB3LYP) =  -3630.84733379     A.U. after   11 cycles
 SCF Done:  E(RB3LYP) =  -3630.84733458     A.U. after   11 cycles
 SCF Done:  E(RB3LYP) =  -3630.84733493     A.U. after    9 cycles
 SCF Done:  E(RB3LYP) =  -3630.84733516     A.U. after    9 cycles
 SCF Done:  E(RB3LYP) =  -3630.84733522     A.U. after    9 cycles
 Optimization completed.
    -- Stationary point found.
 Normal termination of Gaussian 16 at Tue Sep 17 09:45:54 2024.

 ----------------------------------------------------------------------
 #P Geom=AllCheck Guess=TCheck SCRF=Check GenChk RB3LYP/6-31G(d,p) Freq
 ----------------------------------------------------------------------

 Structure from the checkpoint file:  "smiles_00068_conf_3.chk"
 ----------------------------------
 opt-freq conformers_unique/conf_ad
 ----------------------------------
 Charge =  0 Multiplicity = 1

 SCF Done:  E(RB3LYP) =  -3630.84733522     A.U. after    1 cycles

                      1                      2                      3
                      A                      A                      A
 Frequencies --     12.6625                40.6006                59.3049
 Red. masses --     18.3713                18.6850                14.1286
 Frc consts  --      0.0017                 0.0181                 0.0293
 IR Inten    --      0.0673                 0.1216                 0.7788

                      4                      5                      6
                      A                      A                      A
 Frequencies --    113.4538               128.8691               148.0729
 Red. masses --     14.4150                10.1780                20.0520
 Frc consts  --      0.1093                 0.0996                 0.2590
 IR Inten    --      3.8454                 4.0784                 0.2621

                      7                      8                      9
                      A                      A                      A
 Frequencies --    182.2943               212.9677               272.9650
 Red. masses --      5.1486                 5.0569                15.8734
 Frc consts  --      0.1008                 0.1351                 0.6968
 IR Inten    --      1.2180                 1.5636                 0.3957

                     10                     11                     12
                      A                      A                      A
 Frequencies --    299.2335               325.5847               367.7176
 Red. masses --      9.9467                14.5856                 8.8605
 Frc consts  --      0.5247                 0.9110                 0.7059
 IR Inten    --      3.1980                 1.2370                 0.6751

                     13                     14                     15
                      A                      A                      A
 Frequencies --    405.0916               439.3811               455.1461
 Red. masses --      6.5084                12.8603                16.7925
 Frc consts  --      0.6293                 1.4628                 2.0496
 IR Inten    --      3.1968                 2.4363                 4.0198

                     16                     17                     18
                      A                      A                      A
 Frequencies --    465.6103               529.4665               533.3910
 Red. masses --      8.4790                 9.5437                16.3011
 Frc consts  --      1.0830                 1.5763                 2.7325
 IR Inten    --      0.0074                 1.6682                 1.1365

                     19                     20                     21
                      A                      A                      A
 Frequencies --    574.7627               585.2876               618.9415
 Red. masses --      8.6131                 7.2804                 7.1953
 Frc consts  --      1.6764                 1.4694                 1.6240
 IR Inten    --      2.0756                 0.6908                 1.3816

                     22                     23                     24
                      A                      A                      A
 Frequencies --    694.5469               756.6325               785.2364
 Red. masses --      2.4209                17.5755                10.9200
 Frc consts  --      0.6881                 5.9283                 3.9671
 IR Inten    --     16.0085                22.4366                46.8425

                     25                     26                     27
                      A                      A                      A
 Frequencies --    886.1571               902.2185               923.6028
 Red. masses --      9.6641                 1.5539                 1.3984
 Frc consts  --      4.4713                 0.7452                 0.7028
 IR Inten    --     11.4112                17.5593                 4.7993

                     28                     29                     30
                      A                      A                      A
 Frequencies --    937.1286              1015.9257              1122.1609
 Red. masses --      1.3687                 6.1603                 7.7986
 Frc consts  --      0.7082                 3.7461                 5.7860
 IR Inten    --      0.7743                 1.6465               382.3558

                     31                     32                     33
                      A                      A                      A
 Frequencies --   1135.3076              1147.3321              1201.4221
 Red. masses --      1.7527                 1.7733                12.9356
 Frc consts  --      1.3310                 1.3753                11.0009
 IR Inten    --     31.5938                55.7206               205.9819

                     34                     35                     36
                      A                      A                      A
 Frequencies --   1231.2580              1234.9283              1291.0988
 Red. masses --     10.0003                 4.5708                 1.4859
 Frc consts  --      8.9323                 4.1070                 1.4593
 IR Inten    --    194.6677                51.1225                 2.1959

                     37                     38                     39
                      A                      A                      A
 Frequencies --   1342.3951              1444.8956              1458.8429
 Red. masses --      3.7356                 3.0602                 3.3464
 Frc consts  --      3.9662                 3.7642                 4.1961
 IR Inten    --      0.4394                23.5041                11.8618

                     40                     41                     42
                      A                      A                      A
 Frequencies --   1602.6439              1632.1768              2358.4557
 Red. masses --      5.9912                 6.0335                12.6795
 Frc consts  --      9.0664                 9.4700                41.5535
 IR Inten    --     60.9038                10.5317                13.8755

                     43                     44                     45
                      A                      A                      A
 Frequencies --   3234.3923              3236.6536              3241.4683
 Red. masses --      1.0927                 1.0932                 1.0931
 Frc consts  --      6.7349                 6.7473                 6.7668
 IR Inten    --      2.0597                 1.1162                 1.4621

 - Thermochemistry -
 -------------------
 Temperature   298.150 Kelvin.  Pressure   1.00000 Atm.
 Atom     1 has atomic number  7 and mass  14.00307

 Molecular mass:   280.91217 amu.
 Principal axes and moments of inertia in atomic units:
                           1         2         3
     Eigenvalues --  3083.374827042.753039326.57223
           X            0.99962  -0.02757   0.00249
           Y            0.02758   0.99960  -0.00554
           Z           -0.00234   0.00561   0.99998
 This molecule is an asymmetric top.
 Rotational symmetry number  1.
 Warning -- assumption of classical behavior for rotation
           may cause significant error
 Rotational temperatures (Kelvin)      0.02809     0.01230     0.00929
 Rotational constants (GHZ):           0.58531     0.25626     0.19351
 Zero-point vibrational energy     248749.6 (Joules/Mol)
                                   59.45258 (Kcal/Mol)
 Warning -- explicit consideration of  21 degrees of freedom as
           vibrations may cause significant error
 Vibrational temperatures:     18.22    58.42    85.33   163.23   185.41
          (Kelvin)            213.04   262.28   306.41   392.74   430.53
                              468.44   529.06   582.84   632.17   654.85
                              669.91   761.78   767.43   826.96   842.10
                              890.52   999.30  1088.63  1129.78  1274.98
                             1298.09  1328.86  1348.32  1461.69  1614.54
                             1633.45  1650.75  1728.58  1771.51  1776.79
                             1857.60  1931.41  2078.88  2098.95  2305.85
                             2348.34  3393.29  4653.57  4656.82  4663.75

 Zero-point correction=                           0.094744 (Hartree/Particle)
 Thermal correction to Energy=                    0.107601
 Thermal correction to Enthalpy=                  0.108545
 Thermal correction to Gibbs Free Energy=         0.051572
 Sum of electronic and zero-point Energies=          -3630.752592
 Sum of electronic and thermal Energies=             -3630.739734
 Sum of electronic and thermal Enthalpies=           -3630.738790
 Sum of electronic and thermal Free Energies=        -3630.795763

                     E (Thermal)             CV                S
                      KCal/Mol        Cal/Mol-Kelvin    Cal/Mol-Kelvin
 Total                   67.521             45.361            119.910
 Electronic               0.000              0.000              0.000
 Translational            0.889              2.981             42.797
 Rotational               0.889              2.981             33.670
 Vibrational             65.743             39.399             43.442
 Vibration     1          0.593              1.987              7.542
 Vibration     2          0.594              1.981              5.230
 Vibration     3          0.597              1.974              4.480
 Vibration     4          0.607              1.938              3.209
 Vibration     5          0.611              1.924              2.963
 Vibration     6          0.617              1.905              2.697
 Vibration     7          0.630              1.864              2.305
 Vibration     8          0.644              1.821              2.018
 Vibration     9          0.676              1.723              1.577
 Vibration    10          0.692              1.675              1.421
 Vibration    11          0.710              1.624              1.282
 Vibration    12          0.740              1.539              1.089
 Vibration    13          0.770              1.459              0.944
 Vibration    14          0.799              1.384              0.829
 Vibration    15          0.813              1.350              0.780
 Vibration    16          0.823              1.326              0.750
 Vibration    17          0.884              1.185              0.588
 Vibration    18          0.888              1.176              0.580
 Vibration    19          0.931              1.086              0.495
 Vibration    20          0.942              1.063              0.476
 Vibration    21          0.979              0.992              0.418

 Optimization completed.
    -- Stationary point found.
 Normal termination of Gaussian 16 at Tue Sep 17 09:47:34 2024.

 ----------------------------------------------------------------------
 #p M062X/def2tzvp geom=check guess=read scf(xqc,tight) integral(grid=u
 ltrafine) scrf(SMD, solvent=1,4-Dioxane) polar prop=efg volume
 ----------------------------------------------------------------------

 ---
 spe
 ---
 Structure from the checkpoint file:  "smiles_00068_conf_3.chk"
 Charge =  0 Multiplicity = 1

 SCF Done:  E(RM062X) =  -3633.33952924     A.U. after   13 cycles

  Exact polarizability:     189.047       2.022     189.331      14.158      -9.093      98.023
 Approx polarizability:     196.197       4.136     212.697      15.536     -10.644     122.499

 Normal termination of Gaussian 16 at Tue Sep 17 10:38:25 2024.
 Gaussian 16:  ES64L-G16RevC.02  7-Dec-2021

 ----------------------------------------------------------------------
 #p M062X/def2tzvp geom=check guess=read scf(xqc,tight) integral(grid=u
 ltrafine) scrf(SMD, solvent=1,4-Dioxane) nmr=giao
 ----------------------------------------------------------------------

 ---
 spe
 ---
 Structure from the checkpoint file:  "smiles_00068_conf_3.chk"
 Charge =  0 Multiplicity = 1

                         Standard orientation:
 ---------------------------------------------------------------------
 Center     Atomic      Atomic             Coordinates (Angstroms)
 Number     Number       Type             X           Y           Z
 ---------------------------------------------------------------------
      1          7           0       -0.819371    4.556097   -0.251655
      2          6           0       -0.742330    3.407194   -0.092395
      3          6           0       -0.646642    1.990600    0.104480
      4          6           0       -1.779945    1.186534   -0.093449
      5          6           0       -1.672387   -0.185262    0.103453
      6         35           0       -3.200594   -1.287441   -0.161452
      7          6           0       -0.466060   -0.771720    0.483723
      8          6           0        0.653415    0.041985    0.683111
      9         16           0        2.191149   -0.709200    1.217539
     10          6           0        3.093923   -0.616747   -0.369409
     11          9           0        4.296742   -1.175530   -0.180572
     12          9           0        2.463220   -1.271719   -1.354909
     13          9           0        3.273632    0.649472   -0.784919
     14          6           0        0.572002    1.423555    0.501831
     15          1           0       -2.720819    1.630554   -0.392808
     16          1           0       -0.394765   -1.843492    0.619553
     17          1           0        1.439391    2.051061    0.660585
 ---------------------------------------------------------------------

 SCF Done:  E(RM062X) =  -3633.33952924     A.U. after    1 cycles

      1  N    Isotropic =   -86.7573   Anisotropy =   466.1681

      2  C    Isotropic =    51.4327   Anisotropy =   378.4019

      3  C    Isotropic =    48.2737   Anisotropy =   170.6126

      4  C    Isotropic =    22.1386   Anisotropy =   199.0387

      5  C    Isotropic =    22.3424   Anisotropy =   157.7484

      6  Br   Isotropic =  2019.9755   Anisotropy =  1342.7476

      7  C    Isotropic =    16.2645   Anisotropy =   180.4628

      8  C    Isotropic =    31.7516   Anisotropy =   180.2383

      9  S    Isotropic =   281.8194   Anisotropy =   362.5156

     10  C    Isotropic =    40.2352   Anisotropy =    19.2089

     11  F    Isotropic =   226.5093   Anisotropy =   149.5610

     12  F    Isotropic =   215.7500   Anisotropy =   157.4916

     13  F    Isotropic =   215.4937   Anisotropy =   158.1082

     14  C    Isotropic =    19.5360   Anisotropy =   209.0087

     15  H    Isotropic =    23.1752   Anisotropy =    11.4899

     16  H    Isotropic =    23.0670   Anisotropy =    13.4562

     17  H    Isotropic =    23.0215   Anisotropy =    10.9138

 The electronic state is 1-A.
 Alpha  occ. eigenvalues -- -485.39655 -89.94917 -63.38127 -57.20080 -57.19832
 Alpha  occ. eigenvalues --  -57.19824 -25.30440 -25.30095 -25.30089 -14.77536
 Alpha  occ. eigenvalues --  -10.83552 -10.63579 -10.62014 -10.61886 -10.60116
 Alpha  occ. eigenvalues --  -10.59823 -10.59635 -10.59594  -9.04771  -8.30774
 Alpha  occ. eigenvalues --   -6.87206  -6.86288  -6.86261  -6.22743  -6.22538
 Alpha  occ. eigenvalues --   -6.22172  -2.90582  -2.90252  -2.90222  -2.89367
 Alpha  occ. eigenvalues --   -2.89367  -1.48564  -1.39784  -1.39333  -1.03995
 Alpha  occ. eigenvalues --   -1.01781  -0.94621  -0.92899  -0.87844  -0.85028
 Alpha  occ. eigenvalues --   -0.80205  -0.76661  -0.72246  -0.71251  -0.71145
 Alpha  occ. eigenvalues --   -0.66414  -0.62968  -0.60135  -0.59597  -0.59543
 Alpha  occ. eigenvalues --   -0.58657  -0.55953  -0.55506  -0.53608  -0.51639
 Alpha  occ. eigenvalues --   -0.51453  -0.51037  -0.47764  -0.46375  -0.45316
 Alpha  occ. eigenvalues --   -0.44900  -0.43978  -0.41719  -0.39745  -0.37235
 Alpha  occ. eigenvalues --   -0.35505  -0.33922  -0.32686
 Alpha virt. eigenvalues --   -0.05168  -0.03575   0.00844   0.03172   0.05720
 Alpha virt. eigenvalues --    0.07256   0.08008   0.08987   0.10061   0.11406
 Alpha virt. eigenvalues --    0.12685   0.13579   0.14256   0.15186   0.15395

 Mulliken charges:
               1
     1  N   -0.024694
     2  C   -0.217589
     3  C    0.232330
     4  C   -0.199500
     5  C    0.065512
     6  Br  -0.066402
     7  C   -0.135802
     8  C   -0.033186
     9  S   -0.007910
    10  C    0.449789
    11  F   -0.160449
    12  F   -0.162908
    13  F   -0.167066
    14  C   -0.189535
    15  H    0.208580
    16  H    0.200547
    17  H    0.208285
 Sum of Mulliken charges =  -0.00000

 Dipole moment (field-independent basis, Debye):
    X=             -0.7971    Y=             -3.1482    Z=              1.2663  Tot=              3.4857
 Quadrupole moment (field-independent basis, Debye-Ang):
   XX=            -99.1571   YY=           -119.3401   ZZ=            -98.4473
   XY=              3.8087   XZ=              2.1114   YZ=              1.0935

 Normal termination of Gaussian 16 at Tue Sep 17 10:56:38 2024.
