 Gaussian 16, Revision C.02,

 ----------------------------------------------------------------------
 #p B3LYP/6-31G(d,p) EmpiricalDispersion=GD3BJ opt freq scf(xqc,tight)
 integral(grid=ultrafine)
 ----------------------------------------------------------------------

 ----------------------------------
 opt-freq conformers_unique/conf_ab
 ----------------------------------
 Symbolic Z-matrix:
 Charge =  0 Multiplicity = 1

 SCF Done:  E(RB3LYP) =  -2921.36437029     A.U. after   14 cycles
 SCF Done:  E(RB3LYP) =  -2921.36560423     A.U. after   11 cycles
 SCF Done:  E(RB3LYP) =  -2921.36564657     A.U. after   10 cycles
 SCF Done:  E(RB3LYP) =  -2921.36564970     A.U. after    8 cycles
 SCF Done:  E(RB3LYP) =  -2921.36565438     A.U. after    9 cycles
 SCF Done:  E(RB3LYP) =  -2921.36568503     A.U. after   11 cycles
 SCF Done:  E(RB3LYP) =  -2921.31901572     A.U. after   14 cycles
 SCF Done:  E(RB3LYP) =  -2921.36648757     A.U. after   12 cycles
 SCF Done:  E(RB3LYP) =  -2921.28431328     A.U. after   13 cycles
 SCF Done:  E(RB3LYP) =  -2921.36590125     A.U. after   12 cycles
 SCF Done:  E(RB3LYP) =  -2921.36788248     A.U. after   10 cycles
 SCF Done:  E(RB3LYP) =  -2921.36788427     A.U. after    8 cycles
 SCF Done:  E(RB3LYP) =  -2921.36788488     A.U. after   10 cycles
 SCF Done:  E(RB3LYP) =  -2921.36788783     A.U. after   10 cycles
 SCF Done:  E(RB3LYP) =  -2921.36788814     A.U. after    9 cycles
 SCF Done:  E(RB3LYP) =  -2921.36788816     A.U. after    8 cycles
 SCF Done:  E(RB3LYP) =  -2921.36788817     A.U. after    6 cycles
 Optimization completed on the basis of negligible forces.
    -- Stationary point found.
 Normal termination of Gaussian 16 at Tue Sep 17 10:00:42 2024.

 ----------------------------------------------------------------------
 #P Geom=AllCheck Guess=TCheck SCRF=Check GenChk RB3LYP/6-31G(d,p) Freq
 ----------------------------------------------------------------------

 Structure from the checkpoint file:  "smiles_00020_conf_1.chk"
 ----------------------------------
 opt-freq conformers_unique/conf_ab
 ----------------------------------
 Charge =  0 Multiplicity = 1

 SCF Done:  E(RB3LYP) =  -2921.36788817     A.U. after    1 cycles

                      1                      2                      3
                      A                      A                      A
 Frequencies --     28.7022                86.8815               162.4082
 Red. masses --      1.0172                 4.0937                 1.2783
 Frc consts  --      0.0005                 0.0182                 0.0199
 IR Inten    --      0.2295                 0.0276                 2.2298

                      4                      5                      6
                      A                      A                      A
 Frequencies --    164.8592               180.1185               206.2251
 Red. masses --      1.0624                 1.8484                 5.3764
 Frc consts  --      0.0170                 0.0353                 0.1347
 IR Inten    --      0.0001                 1.6435                 0.0794

                      7                      8                      9
                      A                      A                      A
 Frequencies --    235.1909               253.1589               279.1328
 Red. masses --      2.6981                 5.3194                 2.5057
 Frc consts  --      0.0879                 0.2009                 0.1150
 IR Inten    --      0.0002                 2.6700                 0.2654

                     10                     11                     12
                      A                      A                      A
 Frequencies --    312.5087               340.1157               502.7039
 Red. masses --      4.5486                 3.3682                 2.9343
 Frc consts  --      0.2617                 0.2296                 0.4369
 IR Inten    --      0.2497                 0.1544                 0.2992

                     13                     14                     15
                      A                      A                      A
 Frequencies --    531.8975               549.1465               564.7943
 Red. masses --      3.1441                 4.7167                 3.3401
 Frc consts  --      0.5241                 0.8380                 0.6277
 IR Inten    --      0.0201                 1.0877                 1.2501

                     16                     17                     18
                      A                      A                      A
 Frequencies --    577.2866               597.5979               738.9815
 Red. masses --      4.5928                 4.6178                 3.4391
 Frc consts  --      0.9018                 0.9716                 1.1065
 IR Inten    --      4.6695                 2.7565                 1.2382

                     19                     20                     21
                      A                      A                      A
 Frequencies --    876.7980               899.3980               954.4793
 Red. masses --      1.2815                 1.3016                 2.4673
 Frc consts  --      0.5805                 0.6203                 1.3244
 IR Inten    --     11.4927                 0.0022                 0.7784

                     22                     23                     24
                      A                      A                      A
 Frequencies --    974.3891              1038.9789              1040.1477
 Red. masses --      3.0991                 2.1857                 3.4814
 Frc consts  --      1.7336                 1.3901                 2.2192
 IR Inten    --      6.9176                 2.2585                51.5586

                     25                     26                     27
                      A                      A                      A
 Frequencies --   1041.4632              1062.0957              1065.2418
 Red. masses --      1.5265                 1.7666                 1.5228
 Frc consts  --      0.9755                 1.1741                 1.0181
 IR Inten    --      0.8023                 0.5848                 4.9674

                     28                     29                     30
                      A                      A                      A
 Frequencies --   1067.3766              1067.8910              1206.8709
 Red. masses --      1.5089                 1.5746                 1.4107
 Frc consts  --      1.0128                 1.0580                 1.2106
 IR Inten    --      0.0009                15.1489                 4.2172

                     31                     32                     33
                      A                      A                      A
 Frequencies --   1281.6346              1338.2578              1338.8082
 Red. masses --      1.4008                 7.2460                 4.9440
 Frc consts  --      1.3557                 7.6459                 5.2211
 IR Inten    --      0.1985                 0.5114                 0.6839

                     34                     35                     36
                      A                      A                      A
 Frequencies --   1426.2351              1427.6068              1432.2584
 Red. masses --      1.2443                 1.2314                 1.3327
 Frc consts  --      1.4913                 1.4787                 1.6107
 IR Inten    --      0.0073                 0.8273                 0.4761

                     37                     38                     39
                      A                      A                      A
 Frequencies --   1450.9483              1457.0298              1494.9222
 Red. masses --      2.4597                 2.1076                 1.0439
 Frc consts  --      3.0509                 2.6361                 1.3746
 IR Inten    --      0.2013                 7.0767                14.6462

                     40                     41                     42
                      A                      A                      A
 Frequencies --   1495.8100              1502.5218              1502.8256
 Red. masses --      1.0435                 1.0508                 1.0542
 Frc consts  --      1.3756                 1.3977                 1.4028
 IR Inten    --      0.0001                 5.0785                 1.7889

                     43                     44                     45
                      A                      A                      A
 Frequencies --   1514.6812              1520.4154              1637.9531
 Red. masses --      1.2701                 1.3575                 7.4860
 Frc consts  --      1.7168                 1.8489                11.8332
 IR Inten    --     26.1073                33.6888                 6.4763

                     46                     47                     48
                      A                      A                      A
 Frequencies --   1652.5158              3039.3756              3048.1802
 Red. masses --      5.3858                 1.0400                 1.0363
 Frc consts  --      8.6655                 5.6605                 5.6729
 IR Inten    --      1.9216                33.5137                30.5703

                     49                     50                     51
                      A                      A                      A
 Frequencies --   3048.7567              3100.2601              3107.0963
 Red. masses --      1.0363                 1.0963                 1.1005
 Frc consts  --      5.6752                 6.2081                 6.2596
 IR Inten    --      4.2386                19.5365                18.4419

                     52                     53                     54
                      A                      A                      A
 Frequencies --   3107.0990              3127.6535              3136.1385
 Red. masses --      1.1005                 1.1029                 1.1029
 Frc consts  --      6.2596                 6.3569                 6.3912
 IR Inten    --      4.1940                14.3451                19.4718

                     55                     56                     57
                      A                      A                      A
 Frequencies --   3136.7103              3173.9948              3175.6154
 Red. masses --      1.1027                 1.0899                 1.0904
 Frc consts  --      6.3924                 6.4693                 6.4788
 IR Inten    --     13.7620                24.2269                11.1845

 - Thermochemistry -
 -------------------
 Temperature   298.150 Kelvin.  Pressure   1.00000 Atm.
 Atom     1 has atomic number  6 and mass  12.00000

 Molecular mass:   198.00441 amu.
 Principal axes and moments of inertia in atomic units:
                           1         2         3
     Eigenvalues --  1042.622682874.308753883.48833
           X            1.00000  -0.00000   0.00050
           Y            0.00000   1.00000   0.00000
           Z           -0.00050  -0.00000   1.00000
 This molecule is an asymmetric top.
 Rotational symmetry number  1.
 Warning -- assumption of classical behavior for rotation
           may cause significant error
 Rotational temperatures (Kelvin)      0.08307     0.03013     0.02230
 Rotational constants (GHZ):           1.73096     0.62789     0.46472
 Zero-point vibrational energy     456268.5 (Joules/Mol)
                                  109.05080 (Kcal/Mol)
 Warning -- explicit consideration of  17 degrees of freedom as
           vibrations may cause significant error
 Vibrational temperatures:     41.30   125.00   233.67   237.20   259.15
          (Kelvin)            296.71   338.39   364.24   401.61   449.63
                              489.35   723.28   765.28   790.10   812.61
                              830.59   859.81  1063.23  1261.52  1294.03
                             1373.28  1401.93  1494.86  1496.54  1498.43
                             1528.12  1532.65  1535.72  1536.46  1736.42
                             1843.99  1925.45  1926.25  2052.03  2054.01
                             2060.70  2087.59  2096.34  2150.86  2152.14
                             2161.79  2162.23  2179.29  2187.54  2356.65
                             2377.60  4372.98  4385.65  4386.48  4460.58
                             4470.42  4470.42  4500.00  4512.20  4513.03
                             4566.67  4569.00

 Zero-point correction=                           0.173784 (Hartree/Particle)
 Thermal correction to Energy=                    0.184600
 Thermal correction to Enthalpy=                  0.185544
 Thermal correction to Gibbs Free Energy=         0.136078
 Sum of electronic and zero-point Energies=          -2921.194105
 Sum of electronic and thermal Energies=             -2921.183288
 Sum of electronic and thermal Enthalpies=           -2921.182344
 Sum of electronic and thermal Free Energies=        -2921.231810

                     E (Thermal)             CV                S
                      KCal/Mol        Cal/Mol-Kelvin    Cal/Mol-Kelvin
 Total                  115.838             39.156            104.110
 Electronic               0.000              0.000              0.000
 Translational            0.889              2.981             41.754
 Rotational               0.889              2.981             30.832
 Vibrational            114.061             33.194             31.523
 Vibration     1          0.593              1.984              5.917
 Vibration     2          0.601              1.958              3.729
 Vibration     3          0.623              1.889              2.522
 Vibration     4          0.623              1.886              2.493
 Vibration     5          0.629              1.867              2.327
 Vibration     6          0.641              1.831              2.077
 Vibration     7          0.655              1.787              1.839
 Vibration     8          0.664              1.757              1.708
 Vibration     9          0.679              1.712              1.539
 Vibration    10          0.701              1.650              1.349
 Vibration    11          0.720              1.595              1.212
 Vibration    12          0.858              1.244              0.651
 Vibration    13          0.887              1.179              0.583
 Vibration    14          0.904              1.142              0.546
 Vibration    15          0.921              1.107              0.514
 Vibration    16          0.934              1.080              0.490
 Vibration    17          0.956              1.037              0.454

 Optimization completed on the basis of negligible forces.
    -- Stationary point found.
 Normal termination of Gaussian 16 at Tue Sep 17 10:01:47 2024.

 ----------------------------------------------------------------------
 #p M062X/def2tzvp geom=check guess=read scf(xqc,tight) integral(grid=u
 ltrafine) scrf(SMD, solvent=1,4-Dioxane) polar prop=efg volume
 ----------------------------------------------------------------------

 ---
 spe
 ---
 Structure from the checkpoint file:  "smiles_00020_conf_1.chk"
 Charge =  0 Multiplicity = 1

 SCF Done:  E(RM062X) =  -2923.76297813     A.U. after   12 cycles

  Exact polarizability:     191.074      -0.004     157.939       0.515       0.000      88.714
 Approx polarizability:     195.155      -0.005     169.281       0.371      -0.000     110.206

 1\1\GINC-HPC-35-29\SP\RM062X\def2TZVP\C9H11Br1\MANTIND\17-Sep-2024\0\\
 #p M062X/def2tzvp geom=check guess=read scf(xqc,tight) integral(grid=u
 ltrafine) scrf(SMD, solvent=1,4-Dioxane) polar prop=efg volume\\spe\\0
 ,1\C,0,-4.2279658897,0.0008729173,-0.109284497\C,0,-2.7212876174,0.011
 7425959,-0.0358909609\C,0,-1.9982264641,-1.1818678435,0.0200020814\C,0
 ,-0.600366954,-1.203824589,0.057248129\C,0,0.1471176656,-2.5082995985,
 0.1189935635\C,0,0.0602198646,0.0299365386,0.0383914109\Br,0,1.9802892
 54,0.0425920097,0.0927689328\C,0,-0.6145673376,1.2550321783,-0.0129382

 Normal termination of Gaussian 16 at Tue Sep 17 10:28:49 2024.
 Gaussian 16:  ES64L-G16RevC.02  7-Dec-2021

 ----------------------------------------------------------------------
 #p M062X/def2tzvp geom=check guess=read scf(xqc,tight) integral(grid=u
 ltrafine) scrf(SMD, solvent=1,4-Dioxane) nmr=giao
 ----------------------------------------------------------------------

 ---
 spe
 ---
 Structure from the checkpoint file:  "smiles_00020_conf_1.chk"
 Charge =  0 Multiplicity = 1

                         Standard orientation:
 ---------------------------------------------------------------------
 Center     Atomic      Atomic             Coordinates (Angstroms)
 Number     Number       Type             X           Y           Z
 ---------------------------------------------------------------------
      1          6           0        4.042917    0.000010    0.017158
      2          6           0        2.534662    0.000052   -0.010229
      3          6           0        1.818202   -1.198836   -0.010046
      4          6           0        0.420034   -1.229944   -0.003727
      5          6           0       -0.320277   -2.539958   -0.005500
      6          6           0       -0.247876    0.000006    0.000423
      7         35           0       -2.168752   -0.000019    0.004675
      8          6           0        0.419984    1.229956   -0.003730
      9          6           0       -0.320373    2.539945   -0.005502
     10          6           0        1.818174    1.198894   -0.010041
     11          1           0        4.418880   -0.002080    1.047575
     12          1           0        4.451108   -0.884562   -0.479948
     13          1           0        4.451084    0.886551   -0.476417
     14          1           0        2.357422   -2.142608   -0.016379
     15          1           0       -0.971565   -2.623044   -0.881675
     16          1           0       -0.967048   -2.627523    0.873575
     17          1           0        0.377662   -3.380146   -0.009367
     18          1           0       -0.971640    2.623020   -0.881692
     19          1           0        0.377537    3.380158   -0.009341
     20          1           0       -0.967160    2.627467    0.873567
     21          1           0        2.357367    2.142680   -0.016364
 ---------------------------------------------------------------------

 SCF Done:  E(RM062X) =  -2923.76297813     A.U. after    1 cycles

      1  C    Isotropic =   164.4089   Anisotropy =    40.6847

      2  C    Isotropic =    23.2947   Anisotropy =   225.8096

      3  C    Isotropic =    34.4811   Anisotropy =   162.9989

      4  C    Isotropic =    22.1281   Anisotropy =   210.3019

      5  C    Isotropic =   160.8460   Anisotropy =    31.9645

      6  C    Isotropic =    25.9576   Anisotropy =   103.0455

      7  Br   Isotropic =  2230.0313   Anisotropy =   747.4443

      8  C    Isotropic =    22.1277   Anisotropy =   210.3000

      9  C    Isotropic =   160.8458   Anisotropy =    31.9627

     10  C    Isotropic =    34.4827   Anisotropy =   162.9317

     11  H    Isotropic =    29.3300   Anisotropy =     8.6340

     12  H    Isotropic =    29.5764   Anisotropy =     7.8719

     13  H    Isotropic =    29.5788   Anisotropy =     7.8690

     14  H    Isotropic =    24.0337   Anisotropy =     9.6753

     15  H    Isotropic =    29.3179   Anisotropy =     6.8008

     16  H    Isotropic =    29.3187   Anisotropy =     6.8183

     17  H    Isotropic =    29.6266   Anisotropy =     9.1082

     18  H    Isotropic =    29.3180   Anisotropy =     6.8010

     19  H    Isotropic =    29.6266   Anisotropy =     9.1081

     20  H    Isotropic =    29.3187   Anisotropy =     6.8181

     21  H    Isotropic =    24.0343   Anisotropy =     9.6720

 The electronic state is 1-A.
 Alpha  occ. eigenvalues -- -485.36900 -63.35374 -57.17313 -57.17093 -57.17077
 Alpha  occ. eigenvalues --  -10.59081 -10.55943 -10.55941 -10.55158 -10.53839
 Alpha  occ. eigenvalues --  -10.53835 -10.53078 -10.53078 -10.53066  -9.02006
 Alpha  occ. eigenvalues --   -6.84386  -6.83571  -6.83518  -2.87764  -2.87479
 Alpha  occ. eigenvalues --   -2.87423  -2.86663  -2.86662  -0.98004  -0.90382
 Alpha  occ. eigenvalues --   -0.88597  -0.84592  -0.79431  -0.77152  -0.75468
 Alpha  occ. eigenvalues --   -0.66277  -0.64485  -0.55948  -0.55488  -0.50405
 Alpha  occ. eigenvalues --   -0.49795  -0.47894  -0.47772  -0.47057  -0.46620
 Alpha  occ. eigenvalues --   -0.45978  -0.45407  -0.42974  -0.41124  -0.40197
 Alpha  occ. eigenvalues --   -0.39014  -0.36695  -0.34259  -0.29735  -0.28262
 Alpha virt. eigenvalues --    0.01737   0.02164   0.04534   0.07685   0.09209
 Alpha virt. eigenvalues --    0.09707   0.11410   0.12077   0.14034   0.14895
 Alpha virt. eigenvalues --    0.15738   0.15798   0.16526   0.17687   0.17781

 Mulliken charges:
               1
     1  C   -0.496128
     2  C    0.127204
     3  C   -0.244608
     4  C    0.153695
     5  C   -0.490928
     6  C   -0.131027
     7  Br  -0.127297
     8  C    0.153622
     9  C   -0.490936
    10  C   -0.244664
    11  H    0.168828
    12  H    0.156255
    13  H    0.156184
    14  H    0.161730
    15  H    0.172971
    16  H    0.172935
    17  H    0.147267
    18  H    0.172972
    19  H    0.147269
    20  H    0.172933
    21  H    0.161724
 Sum of Mulliken charges =  -0.00000

 Dipole moment (field-independent basis, Debye):
    X=              2.1203    Y=             -0.0002    Z=              0.0386  Tot=              2.1206
 Quadrupole moment (field-independent basis, Debye-Ang):
   XX=            -69.3959   YY=            -66.2210   ZZ=            -76.4699
   XY=             -0.0010   XZ=              0.1548   YZ=              0.0000

 1\1\GINC-HPC-35-29\SP\RM062X\def2TZVP\C9H11Br1\MANTIND\17-Sep-2024\0\\
 #p M062X/def2tzvp geom=check guess=read scf(xqc,tight) integral(grid=u
 ltrafine) scrf(SMD, solvent=1,4-Dioxane) nmr=giao\\spe\\0,1\C,0,-4.227
 9658897,0.0008729173,-0.109284497\C,0,-2.7212876174,0.0117425959,-0.03
 58909609\C,0,-1.9982264641,-1.1818678435,0.0200020814\C,0,-0.600366954
 ,-1.203824589,0.057248129\C,0,0.1471176656,-2.5082995985,0.1189935635\
 C,0,0.0602198646,0.0299365386,0.0383914109\Br,0,1.980289254,0.04259200
 97,0.0927689328\C,0,-0.6145673376,1.2550321783,-0.0129382123\C,0,0.117

 Normal termination of Gaussian 16 at Tue Sep 17 10:38:41 2024.
