 Gaussian 16, Revision C.02,

 ----------------------------------------------------------------------
 #p B3LYP/6-31G(d,p) EmpiricalDispersion=GD3BJ opt freq scf(xqc,tight)
 integral(grid=ultrafine)
 ----------------------------------------------------------------------

 ----------------------------------
 opt-freq conformers_unique/conf_aa
 ----------------------------------
 Symbolic Z-matrix:
 Charge =  0 Multiplicity = 1

 SCF Done:  E(RB3LYP) =  -3104.09202832     A.U. after   15 cycles
 SCF Done:  E(RB3LYP) =  -3104.09325957     A.U. after   12 cycles
 SCF Done:  E(RB3LYP) =  -3104.09334478     A.U. after   10 cycles
 SCF Done:  E(RB3LYP) =  -3104.09334261     A.U. after   10 cycles
 SCF Done:  E(RB3LYP) =  -3104.09332673     A.U. after   10 cycles
 SCF Done:  E(RB3LYP) =  -3104.09335310     A.U. after   10 cycles
 SCF Done:  E(RB3LYP) =  -3104.09335420     A.U. after    8 cycles
 Optimization completed.
    -- Stationary point found.
 Normal termination of Gaussian 16 at Tue Sep 17 09:45:33 2024.

 ----------------------------------------------------------------------
 #P Geom=AllCheck Guess=TCheck SCRF=Check GenChk RB3LYP/6-31G(d,p) Freq
 ----------------------------------------------------------------------

 Structure from the checkpoint file:  "smiles_00031_conf_0.chk"
 ----------------------------------
 opt-freq conformers_unique/conf_aa
 ----------------------------------
 Charge =  0 Multiplicity = 1

 SCF Done:  E(RB3LYP) =  -3104.09335420     A.U. after    1 cycles

                      1                      2                      3
                      A                      A                      A
 Frequencies --     80.1841               143.3215               152.2906
 Red. masses --     10.6687                 5.8904                14.4394
 Frc consts  --      0.0404                 0.0713                 0.1973
 IR Inten    --      2.6384                 1.2257                 2.2783

                      4                      5                      6
                      A                      A                      A
 Frequencies --    172.4048               245.3687               254.0440
 Red. masses --     13.5504                21.0234                 7.3865
 Frc consts  --      0.2373                 0.7457                 0.2809
 IR Inten    --      2.3699                 0.4204                 0.5075

                      7                      8                      9
                      A                      A                      A
 Frequencies --    314.3021               385.6104               427.8400
 Red. masses --      6.4553                11.3507                 3.1048
 Frc consts  --      0.3757                 0.9944                 0.3348
 IR Inten    --      0.0871                16.5295                 0.8689

                     10                     11                     12
                      A                      A                      A
 Frequencies --    501.3025               554.9298               597.0869
 Red. masses --      6.2547                 8.2647                 8.0234
 Frc consts  --      0.9261                 1.4995                 1.6853
 IR Inten    --      4.4539                 6.1612                12.7830

                     13                     14                     15
                      A                      A                      A
 Frequencies --    643.1568               678.8167               700.8932
 Red. masses --     13.6797                 4.1874                 9.8223
 Frc consts  --      3.3340                 1.1368                 2.8429
 IR Inten    --      1.6169                 8.4310                16.3061

                     16                     17                     18
                      A                      A                      A
 Frequencies --    734.3916               761.9621               775.8517
 Red. masses --      8.8139                 6.7831                 6.5001
 Frc consts  --      2.8008                 2.3203                 2.3053
 IR Inten    --     35.7378                 0.3729                 0.0000

                     19                     20                     21
                      A                      A                      A
 Frequencies --    863.6553               873.5155               933.2424
 Red. masses --      1.4281                 9.0547                 1.4095
 Frc consts  --      0.6276                 4.0707                 0.7233
 IR Inten    --     15.1783                36.4816                 5.7224

                     22                     23                     24
                      A                      A                      A
 Frequencies --    934.4515               997.2321              1072.5593
 Red. masses --     12.4079                 1.3573                 2.0219
 Frc consts  --      6.3835                 0.7953                 1.3704
 IR Inten    --    187.8831                 0.0037                18.6610

                     25                     26                     27
                      A                      A                      A
 Frequencies --   1124.2004              1140.3658              1195.3280
 Red. masses --      2.4982                 6.1725                 1.8496
 Frc consts  --      1.8602                 4.7293                 1.5570
 IR Inten    --      8.7754                28.4063                25.2904

                     28                     29                     30
                      A                      A                      A
 Frequencies --   1276.7155              1290.5208              1377.6341
 Red. masses --      2.1792                 2.3154                 8.6441
 Frc consts  --      2.0928                 2.2720                 9.6658
 IR Inten    --    234.6010               123.5564                25.0822

                     31                     32                     33
                      A                      A                      A
 Frequencies --   1460.4115              1503.8713              1651.3860
 Red. masses --      3.9885                 2.6667                 7.3162
 Frc consts  --      5.0120                 3.5534                11.7553
 IR Inten    --     30.4748                15.2754                41.4788

                     34                     35                     36
                      A                      A                      A
 Frequencies --   1654.1642              1872.2590              1929.8921
 Red. masses --      8.8158                13.1739                13.0674
 Frc consts  --     14.2124                27.2080                28.6752
 IR Inten    --     10.8620               545.7188               245.3126

                     37                     38                     39
                      A                      A                      A
 Frequencies --   3218.9332              3231.4559              3236.6019
 Red. masses --      1.0894                 1.0957                 1.0934
 Frc consts  --      6.6504                 6.7415                 6.7483
 IR Inten    --      0.1073                 0.2135                 1.5340

 - Thermochemistry -
 -------------------
 Temperature   298.150 Kelvin.  Pressure   1.00000 Atm.
 Atom     1 has atomic number  8 and mass  15.99491

 Molecular mass:   225.92656 amu.
 Principal axes and moments of inertia in atomic units:
                           1         2         3
     Eigenvalues --  1066.552525257.713726324.26622
           X            1.00000  -0.00278  -0.00003
           Y            0.00278   1.00000  -0.00005
           Z            0.00003   0.00005   1.00000
 This molecule is an asymmetric top.
 Rotational symmetry number  1.
 Warning -- assumption of classical behavior for rotation
           may cause significant error
 Rotational temperatures (Kelvin)      0.08121     0.01647     0.01370
 Rotational constants (GHZ):           1.69213     0.34326     0.28537
 Zero-point vibrational energy     245008.1 (Joules/Mol)
                                   58.55834 (Kcal/Mol)
 Warning -- explicit consideration of  12 degrees of freedom as
           vibrations may cause significant error
 Vibrational temperatures:    115.37   206.21   219.11   248.05   353.03
          (Kelvin)            365.51   452.21   554.81   615.57   721.26
                              798.42   859.07   925.36   976.67  1008.43
                             1056.63  1096.29  1116.28  1242.61  1256.79
                             1342.73  1344.47  1434.79  1543.17  1617.47
                             1640.73  1719.81  1836.91  1856.77  1982.11
                             2101.21  2163.74  2375.98  2379.97  2693.76
                             2776.68  4631.33  4649.34  4656.75

 Zero-point correction=                           0.093319 (Hartree/Particle)
 Thermal correction to Energy=                    0.102418
 Thermal correction to Enthalpy=                  0.103362
 Thermal correction to Gibbs Free Energy=         0.057337
 Sum of electronic and zero-point Energies=          -3104.000036
 Sum of electronic and thermal Energies=             -3103.990936
 Sum of electronic and thermal Enthalpies=           -3103.989992
 Sum of electronic and thermal Free Energies=        -3104.036017

                     E (Thermal)             CV                S
                      KCal/Mol        Cal/Mol-Kelvin    Cal/Mol-Kelvin
 Total                   64.268             34.027             96.868
 Electronic               0.000              0.000              0.000
 Translational            0.889              2.981             42.147
 Rotational               0.889              2.981             31.939
 Vibrational             62.491             28.066             22.781
 Vibration     1          0.600              1.963              3.886
 Vibration     2          0.616              1.910              2.759
 Vibration     3          0.619              1.900              2.643
 Vibration     4          0.626              1.876              2.409
 Vibration     5          0.660              1.770              1.764
 Vibration     6          0.665              1.756              1.702
 Vibration     7          0.702              1.646              1.340
 Vibration     8          0.754              1.501              1.017
 Vibration     9          0.789              1.410              0.866
 Vibration    10          0.857              1.247              0.655
 Vibration    11          0.910              1.129              0.534
 Vibration    12          0.955              1.038              0.455

 Optimization completed.
    -- Stationary point found.
 Normal termination of Gaussian 16 at Tue Sep 17 09:46:38 2024.

 ----------------------------------------------------------------------
 #p M062X/def2tzvp geom=check guess=read scf(xqc,tight) integral(grid=u
 ltrafine) scrf(SMD, solvent=1,4-Dioxane) polar prop=efg volume
 ----------------------------------------------------------------------

 ---
 spe
 ---
 Structure from the checkpoint file:  "smiles_00031_conf_0.chk"
 Charge =  0 Multiplicity = 1

 SCF Done:  E(RM062X) =  -3106.56234063     A.U. after   13 cycles

  Exact polarizability:     190.185       6.522     146.014       0.004       0.002      67.448
 Approx polarizability:     196.094      10.346     178.556       0.002      -0.002      86.961

 Normal termination of Gaussian 16 at Tue Sep 17 10:30:08 2024.
 Gaussian 16:  ES64L-G16RevC.02  7-Dec-2021

 ----------------------------------------------------------------------
 #p M062X/def2tzvp geom=check guess=read scf(xqc,tight) integral(grid=u
 ltrafine) scrf(SMD, solvent=1,4-Dioxane) nmr=giao
 ----------------------------------------------------------------------

 ---
 spe
 ---
 Structure from the checkpoint file:  "smiles_00031_conf_0.chk"
 Charge =  0 Multiplicity = 1

                         Standard orientation:
 ---------------------------------------------------------------------
 Center     Atomic      Atomic             Coordinates (Angstroms)
 Number     Number       Type             X           Y           Z
 ---------------------------------------------------------------------
      1          8           0       -3.727042   -1.665572   -0.000068
      2          6           0       -2.936438   -0.765785   -0.000519
      3          8           0       -3.330975    0.579735   -0.000054
      4          6           0       -2.209769    1.414536    0.000273
      5          8           0       -2.294220    2.609250    0.000017
      6          6           0       -1.013478    0.535106   -0.000018
      7          6           0        0.334243    0.862676   -0.000009
      8          6           0        1.229646   -0.209929    0.000000
      9         35           0        3.097276    0.147938    0.000112
     10          6           0        0.799723   -1.545168   -0.000008
     11          6           0       -0.562954   -1.848253   -0.000070
     12          6           0       -1.455619   -0.783823   -0.000150
     13          1           0        0.674494    1.890800    0.000094
     14          1           0        1.538758   -2.337395   -0.000001
     15          1           0       -0.912157   -2.874689   -0.000165
 ---------------------------------------------------------------------

 SCF Done:  E(RM062X) =  -3106.56234063     A.U. after    1 cycles

      1  O    Isotropic =  -186.5317   Anisotropy =   761.3402

      2  C    Isotropic =     4.1263   Anisotropy =    99.7490

      3  O    Isotropic =   -20.3171   Anisotropy =   232.9017

      4  C    Isotropic =     4.2430   Anisotropy =    96.5225

      5  O    Isotropic =  -188.6838   Anisotropy =   766.7387

      6  C    Isotropic =    30.1948   Anisotropy =   181.1910

      7  C    Isotropic =    33.8320   Anisotropy =   192.7022

      8  C    Isotropic =    12.5151   Anisotropy =   168.3794

      9  Br   Isotropic =  2006.4672   Anisotropy =  1301.1261

     10  C    Isotropic =    21.8819   Anisotropy =   198.4754

     11  C    Isotropic =    36.0745   Anisotropy =   218.5482

     12  C    Isotropic =    33.3346   Anisotropy =   187.5074

     13  H    Isotropic =    22.9532   Anisotropy =    10.8828

     14  H    Isotropic =    23.0751   Anisotropy =    11.1229

     15  H    Isotropic =    23.0425   Anisotropy =     6.5910

 The electronic state is 1-A.
 Alpha  occ. eigenvalues -- -485.39757 -63.38232 -57.20182 -57.19940 -57.19928
 Alpha  occ. eigenvalues --  -19.70800 -19.65745 -19.65701 -10.71237 -10.71170
 Alpha  occ. eigenvalues --  -10.64041 -10.60004 -10.59672 -10.59639 -10.59408
 Alpha  occ. eigenvalues --  -10.59253  -9.04878  -6.87305  -6.86406  -6.86365
 Alpha  occ. eigenvalues --   -2.90682  -2.90361  -2.90319  -2.89481  -2.89481
 Alpha  occ. eigenvalues --   -1.27788  -1.21471  -1.17197  -1.02269  -0.94356
 Alpha  occ. eigenvalues --   -0.90228  -0.86416  -0.79259  -0.76139  -0.72136
 Alpha  occ. eigenvalues --   -0.68115  -0.61604  -0.60174  -0.59665  -0.57658
 Alpha  occ. eigenvalues --   -0.55756  -0.54618  -0.54206  -0.50702  -0.50215
 Alpha  occ. eigenvalues --   -0.49282  -0.47025  -0.45505  -0.42075  -0.40580
 Alpha  occ. eigenvalues --   -0.40178  -0.38167  -0.37174  -0.35677  -0.33009
 Alpha virt. eigenvalues --   -0.07362  -0.04125   0.01680   0.04298   0.08329
 Alpha virt. eigenvalues --    0.08593   0.09738   0.10117   0.12644   0.13695
 Alpha virt. eigenvalues --    0.14955   0.17510   0.18017   0.19658   0.19767

 Mulliken charges:
               1
     1  O   -0.263494
     2  C    0.312035
     3  O   -0.210947
     4  C    0.309088
     5  O   -0.262184
     6  C    0.034470
     7  C   -0.218494
     8  C    0.078298
     9  Br  -0.065140
    10  C   -0.120236
    11  C   -0.203494
    12  C    0.015780
    13  H    0.207232
    14  H    0.194368
    15  H    0.192719
 Sum of Mulliken charges =  -0.00000

 Dipole moment (field-independent basis, Debye):
    X=              4.5762    Y=             -2.4057    Z=             -0.0003  Tot=              5.1700
 Quadrupole moment (field-independent basis, Debye-Ang):
   XX=            -99.3575   YY=            -82.1880   ZZ=            -79.2595
   XY=              0.4995   XZ=              0.0014   YZ=              0.0016

 Normal termination of Gaussian 16 at Tue Sep 17 10:45:37 2024.
