 Gaussian 16, Revision C.02,

 ----------------------------------------------------------------------
 #p B3LYP/6-31G(d,p) EmpiricalDispersion=GD3BJ opt freq scf(xqc,tight)
 integral(grid=ultrafine)
 ----------------------------------------------------------------------

 ----------------------------------
 opt-freq conformers_unique/conf_aa
 ----------------------------------
 Symbolic Z-matrix:
 Charge =  0 Multiplicity = 1

 SCF Done:  E(RB3LYP) =  -2835.44875447     A.U. after   14 cycles
 SCF Done:  E(RB3LYP) =  -2835.45015265     A.U. after   11 cycles
 SCF Done:  E(RB3LYP) =  -2835.45024238     A.U. after    9 cycles
 SCF Done:  E(RB3LYP) =  -2835.45024514     A.U. after    8 cycles
 Optimization completed.
    -- Stationary point found.
 Normal termination of Gaussian 16 at Tue Sep 17 09:43:25 2024.

 ----------------------------------------------------------------------
 #P Geom=AllCheck Guess=TCheck SCRF=Check GenChk RB3LYP/6-31G(d,p) Freq
 ----------------------------------------------------------------------

 Structure from the checkpoint file:  "smiles_00042_conf_0.chk"
 ----------------------------------
 opt-freq conformers_unique/conf_aa
 ----------------------------------
 Charge =  0 Multiplicity = 1

 SCF Done:  E(RB3LYP) =  -2835.45024514     A.U. after    1 cycles

                      1                      2                      3
                      A                      A                      A
 Frequencies --    145.3313               273.9813               325.7304
 Red. masses --      6.3736                 7.7444                15.1031
 Frc consts  --      0.0793                 0.3425                 0.9441
 IR Inten    --      4.3784                 3.8647                 5.5368

                      4                      5                      6
                      A                      A                      A
 Frequencies --    412.9406               478.8406               632.6968
 Red. masses --      4.2214                 3.0471                 8.2150
 Frc consts  --      0.4241                 0.4116                 1.9375
 IR Inten    --      0.0000                 0.9457                10.6587

                      7                      8                      9
                      A                      A                      A
 Frequencies --    750.1670               789.1535               820.9915
 Red. masses --      7.8805                 7.4463                 1.2213
 Frc consts  --      2.6129                 2.7322                 0.4850
 IR Inten    --     37.9556                12.9459                16.1286

                     10                     11                     12
                      A                      A                      A
 Frequencies --   1001.0509              1002.8454              1002.8928
 Red. masses --      1.3698                 9.9132                 1.4183
 Frc consts  --      0.8088                 5.8739                 0.8405
 IR Inten    --      0.0000                 0.0881                 0.0452

                     13                     14                     15
                      A                      A                      A
 Frequencies --   1097.8399              1114.9852              1185.9017
 Red. masses --      2.8422                 1.4307                 3.9466
 Frc consts  --      2.0183                 1.0479                 3.2702
 IR Inten    --      3.6031                 0.5335               189.6331

                     16                     17                     18
                      A                      A                      A
 Frequencies --   1252.5630              1298.1239              1429.5535
 Red. masses --      8.0477                 1.6421                 2.1535
 Frc consts  --      7.4391                 1.6304                 2.5930
 IR Inten    --      0.5704                 5.8134               223.1836

                     19                     20                     21
                      A                      A                      A
 Frequencies --   1463.7059              1602.3129              1616.0105
 Red. masses --      1.9156                 6.2646                 4.7740
 Frc consts  --      2.4180                 9.4762                 7.3455
 IR Inten    --      0.8125               100.4252               122.2268

                     22                     23                     24
                      A                      A                      A
 Frequencies --   3180.2194              3182.5606              3230.4826
 Red. masses --      1.0903                 1.0923                 1.0964
 Frc consts  --      6.4971                 6.5185                 6.7417
 IR Inten    --     10.6864                19.8582                 5.7220

 - Thermochemistry -
 -------------------
 Temperature   298.150 Kelvin.  Pressure   1.00000 Atm.
 Atom     1 has atomic number 35 and mass  78.91834

 Molecular mass:   157.94796 amu.
 Principal axes and moments of inertia in atomic units:
                           1         2         3
     Eigenvalues --   296.357841716.797292013.15512
           X            1.00000   0.00000  -0.00011
           Y           -0.00000   1.00000   0.00002
           Z            0.00011  -0.00002   1.00000
 This molecule is an asymmetric top.
 Rotational symmetry number  1.
 Rotational temperatures (Kelvin)      0.29226     0.05045     0.04302
 Rotational constants (GHZ):           6.08974     1.05123     0.89647
 Zero-point vibrational energy     175198.4 (Joules/Mol)
                                   41.87342 (Kcal/Mol)
 Warning -- explicit consideration of   5 degrees of freedom as
           vibrations may cause significant error
 Vibrational temperatures:    209.10   394.20   468.65   594.13   688.94
          (Kelvin)            910.31  1079.32  1135.42  1181.22  1440.29
                             1442.87  1442.94  1579.55  1604.21  1706.25
                             1802.16  1867.71  2056.81  2105.95  2305.37
                             2325.08  4575.63  4578.99  4647.94

 Zero-point correction=                           0.066730 (Hartree/Particle)
 Thermal correction to Energy=                    0.072204
 Thermal correction to Enthalpy=                  0.073148
 Thermal correction to Gibbs Free Energy=         0.035937
 Sum of electronic and zero-point Energies=          -2835.383516
 Sum of electronic and thermal Energies=             -2835.378041
 Sum of electronic and thermal Enthalpies=           -2835.377097
 Sum of electronic and thermal Free Energies=        -2835.414308

                     E (Thermal)             CV                S
                      KCal/Mol        Cal/Mol-Kelvin    Cal/Mol-Kelvin
 Total                   45.309             19.431             78.316
 Electronic               0.000              0.000              0.000
 Translational            0.889              2.981             41.081
 Rotational               0.889              2.981             28.417
 Vibrational             43.531             13.470              8.819
 Vibration     1          0.617              1.908              2.732
 Vibration     2          0.676              1.721              1.571
 Vibration     3          0.710              1.624              1.281
 Vibration     4          0.777              1.442              0.916
 Vibration     5          0.835              1.297              0.713

 Optimization completed.
    -- Stationary point found.
 Normal termination of Gaussian 16 at Tue Sep 17 09:43:45 2024.

 ----------------------------------------------------------------------
 #p M062X/def2tzvp geom=check guess=read scf(xqc,tight) integral(grid=u
 ltrafine) scrf(SMD, solvent=1,4-Dioxane) polar prop=efg volume
 ----------------------------------------------------------------------

 ---
 spe
 ---
 Structure from the checkpoint file:  "smiles_00042_conf_0.chk"
 Charge =  0 Multiplicity = 1

 SCF Done:  E(RM062X) =  -2837.91406519     A.U. after   11 cycles

  Exact polarizability:     125.797      -0.000      85.655       0.007      -0.001      50.041
 Approx polarizability:     131.578      -0.000     104.170       0.007      -0.001      61.975

 Normal termination of Gaussian 16 at Tue Sep 17 09:48:12 2024.
 Gaussian 16:  ES64L-G16RevC.02  7-Dec-2021

 ----------------------------------------------------------------------
 #p M062X/def2tzvp geom=check guess=read scf(xqc,tight) integral(grid=u
 ltrafine) scrf(SMD, solvent=1,4-Dioxane) nmr=giao
 ----------------------------------------------------------------------

 ---
 spe
 ---
 Structure from the checkpoint file:  "smiles_00042_conf_0.chk"
 Charge =  0 Multiplicity = 1

                         Standard orientation:
 ---------------------------------------------------------------------
 Center     Atomic      Atomic             Coordinates (Angstroms)
 Number     Number       Type             X           Y           Z
 ---------------------------------------------------------------------
      1         35           0       -1.761000   -0.000000   -0.000213
      2          6           0        0.148881   -0.000004    0.000134
      3          7           0        0.726012   -1.195843    0.000154
      4          6           0        2.065352   -1.182895    0.000245
      5          6           0        2.800375    0.000000    0.000262
      6          6           0        2.065342    1.182897    0.000187
      7          7           0        0.726011    1.195844    0.000094
      8          1           0        2.553682   -2.154552    0.000274
      9          1           0        3.883762    0.000007    0.000318
     10          1           0        2.553679    2.154552    0.000168
 ---------------------------------------------------------------------

 SCF Done:  E(RM062X) =  -2837.91406519     A.U. after    1 cycles

      1  Br   Isotropic =  1815.2456   Anisotropy =  1638.1422

      2  C    Isotropic =   -12.2060   Anisotropy =    99.2298

      3  N    Isotropic =  -120.1874   Anisotropy =   526.7057

      4  C    Isotropic =    -0.6777   Anisotropy =   222.9794

      5  C    Isotropic =    44.4664   Anisotropy =   205.0475

      6  C    Isotropic =    -0.6781   Anisotropy =   222.9802

      7  N    Isotropic =  -120.1895   Anisotropy =   526.7053

      8  H    Isotropic =    22.3913   Anisotropy =     7.0850

      9  H    Isotropic =    23.8645   Anisotropy =     5.8405

     10  H    Isotropic =    22.3912   Anisotropy =     7.0850

 The electronic state is 1-A.
 Alpha  occ. eigenvalues -- -485.37710 -63.36221 -57.18162 -57.17933 -57.17910
 Alpha  occ. eigenvalues --  -14.77917 -14.77916 -10.67346 -10.61188 -10.61187
 Alpha  occ. eigenvalues --  -10.57075  -9.02890  -6.85300  -6.84447  -6.84368
 Alpha  occ. eigenvalues --   -2.88679  -2.88383  -2.88303  -2.87511  -2.87509
 Alpha  occ. eigenvalues --   -1.12644  -1.01947  -0.92792  -0.85990  -0.76617
 Alpha  occ. eigenvalues --   -0.73600  -0.61327  -0.60681  -0.53701  -0.53164
 Alpha  occ. eigenvalues --   -0.50182  -0.47843  -0.39700  -0.39330  -0.39204
 Alpha  occ. eigenvalues --   -0.36091  -0.33810  -0.32870
 Alpha virt. eigenvalues --   -0.02627  -0.01270   0.04067   0.08819   0.11014
 Alpha virt. eigenvalues --    0.11281   0.13876   0.15217   0.17887   0.18246
 Alpha virt. eigenvalues --    0.21991   0.22132   0.24655   0.25340   0.26570

 Mulliken charges:
               1
     1  Br  -0.072293
     2  C    0.207539
     3  N   -0.243150
     4  C    0.001315
     5  C   -0.183609
     6  C    0.001314
     7  N   -0.243150
     8  H    0.179188
     9  H    0.173656
    10  H    0.179188
 Sum of Mulliken charges =  -0.00000

 Dipole moment (field-independent basis, Debye):
    X=              4.7118    Y=              0.0000    Z=              0.0004  Tot=              4.7118
 Quadrupole moment (field-independent basis, Debye-Ang):
   XX=            -38.4084   YY=            -53.3916   ZZ=            -53.7107
   XY=              0.0000   XZ=              0.0014   YZ=             -0.0000

 Normal termination of Gaussian 16 at Tue Sep 17 09:50:33 2024.
