 Gaussian 16, Revision C.02,

 ----------------------------------------------------------------------
 #p B3LYP/6-31G(d,p) EmpiricalDispersion=GD3BJ opt freq scf(xqc,tight)
 integral(grid=ultrafine)
 ----------------------------------------------------------------------

 ----------------------------------
 opt-freq conformers_unique/conf_ab
 ----------------------------------
 Symbolic Z-matrix:
 Charge =  0 Multiplicity = 1

 SCF Done:  E(RB3LYP) =  -3275.19029927     A.U. after   15 cycles
 SCF Done:  E(RB3LYP) =  -3275.19184972     A.U. after   12 cycles
 SCF Done:  E(RB3LYP) =  -3275.19194913     A.U. after   11 cycles
 SCF Done:  E(RB3LYP) =  -3275.19185609     A.U. after   12 cycles
 SCF Done:  E(RB3LYP) =  -3275.19197805     A.U. after   11 cycles
 SCF Done:  E(RB3LYP) =  -3275.19199054     A.U. after    9 cycles
 SCF Done:  E(RB3LYP) =  -3275.19199446     A.U. after   10 cycles
 SCF Done:  E(RB3LYP) =  -3275.19199614     A.U. after    8 cycles
 SCF Done:  E(RB3LYP) =  -3275.19199645     A.U. after    8 cycles
 Optimization completed.
    -- Stationary point found.
 Normal termination of Gaussian 16 at Tue Sep 17 09:57:33 2024.

 ----------------------------------------------------------------------
 #P Geom=AllCheck Guess=TCheck SCRF=Check GenChk RB3LYP/6-31G(d,p) Freq
 ----------------------------------------------------------------------

 Structure from the checkpoint file:  "smiles_00085_conf_1.chk"
 ----------------------------------
 opt-freq conformers_unique/conf_ab
 ----------------------------------
 Charge =  0 Multiplicity = 1

 SCF Done:  E(RB3LYP) =  -3275.19199645     A.U. after    1 cycles

                      1                      2                      3
                      A                      A                      A
 Frequencies --     30.4586                38.9971                75.6935
 Red. masses --      6.2620                 6.2995                 4.5229
 Frc consts  --      0.0034                 0.0056                 0.0153
 IR Inten    --      2.5611                 1.5202                 0.1853

                      4                      5                      6
                      A                      A                      A
 Frequencies --     90.0443               109.4652               114.0213
 Red. masses --      4.9224                 8.0254                 1.9833
 Frc consts  --      0.0235                 0.0567                 0.0152
 IR Inten    --      1.2529                 0.3502                 0.0228

                      7                      8                      9
                      A                      A                      A
 Frequencies --    127.0645               133.0018               170.1915
 Red. masses --      1.1327                 1.4384                 5.1192
 Frc consts  --      0.0108                 0.0150                 0.0874
 IR Inten    --      0.4448                 0.0517                 9.3054

                     10                     11                     12
                      A                      A                      A
 Frequencies --    204.5698               220.1846               223.2344
 Red. masses --      4.0492                 6.0145                 6.7407
 Frc consts  --      0.0998                 0.1718                 0.1979
 IR Inten    --      0.0484                 2.9021                 0.6149

                     13                     14                     15
                      A                      A                      A
 Frequencies --    263.3280               291.9308               345.7328
 Red. masses --      9.2819                 5.5803                 5.0813
 Frc consts  --      0.3792                 0.2802                 0.3579
 IR Inten    --      2.2544                11.5803                 9.4687

                     16                     17                     18
                      A                      A                      A
 Frequencies --    352.2630               393.0749               474.9212
 Red. masses --      6.6035                 6.4635                 9.2472
 Frc consts  --      0.4828                 0.5884                 1.2289
 IR Inten    --     16.0602                 0.8382                 8.0056

                     19                     20                     21
                      A                      A                      A
 Frequencies --    506.3840               540.2199               568.4376
 Red. masses --      6.1547                 6.7265                 6.7292
 Frc consts  --      0.9299                 1.1566                 1.2811
 IR Inten    --      0.0926                18.4092                 0.1136

                     22                     23                     24
                      A                      A                      A
 Frequencies --    705.3643               744.0017               748.2784
 Red. masses --      6.2394                 8.9974                 6.8374
 Frc consts  --      1.8290                 2.9344                 2.2556
 IR Inten    --     10.0647                92.0549                23.7110

                     25                     26                     27
                      A                      A                      A
 Frequencies --    787.4589               795.6597               843.5018
 Red. masses --      4.3157                 7.4165                 6.0632
 Frc consts  --      1.5767                 2.7663                 2.5417
 IR Inten    --     12.8147                 0.2278                 8.0472

                     28                     29                     30
                      A                      A                      A
 Frequencies --    901.0002               934.7367               960.7917
 Red. masses --      6.1787                 1.5696                 1.4152
 Frc consts  --      2.9553                 0.8080                 0.7697
 IR Inten    --      6.0362                11.8224                 1.6984

                     31                     32                     33
                      A                      A                      A
 Frequencies --   1008.4492              1013.3776              1043.9159
 Red. masses --      7.5199                 6.9329                 8.3945
 Frc consts  --      4.5058                 4.1948                 5.3898
 IR Inten    --     26.2775                 4.2784                45.2695

                     34                     35                     36
                      A                      A                      A
 Frequencies --   1122.5870              1179.2894              1180.3791
 Red. masses --      1.4595                 1.2777                 1.2762
 Frc consts  --      1.0836                 1.0469                 1.0476
 IR Inten    --     12.0788                 0.8378                 0.8489

                     37                     38                     39
                      A                      A                      A
 Frequencies --   1182.9414              1184.4189              1218.0987
 Red. masses --      1.7200                 2.8926                 1.5283
 Frc consts  --      1.4181                 2.3909                 1.3360
 IR Inten    --     56.8387                31.3259                21.2912

                     40                     41                     42
                      A                      A                      A
 Frequencies --   1227.7545              1277.2075              1324.6921
 Red. masses --      2.3423                 3.9490                10.6555
 Frc consts  --      2.0802                 3.7955                11.0167
 IR Inten    --     73.3537               663.9357                 2.0503

                     43                     44                     45
                      A                      A                      A
 Frequencies --   1343.3591              1436.5430              1466.7375
 Red. masses --      4.9672                 3.3656                 2.9656
 Frc consts  --      5.2814                 4.0921                 3.7589
 IR Inten    --    365.2176                46.8456                 7.9437

                     46                     47                     48
                      A                      A                      A
 Frequencies --   1482.5509              1486.1527              1495.2387
 Red. masses --      1.2915                 1.4383                 1.0462
 Frc consts  --      1.6725                 1.8717                 1.3781
 IR Inten    --     21.5482                26.7690                 6.8166

                     49                     50                     51
                      A                      A                      A
 Frequencies --   1496.7820              1507.2196              1509.8079
 Red. masses --      1.0464                 1.0576                 1.0512
 Frc consts  --      1.3812                 1.4155                 1.4118
 IR Inten    --      6.7858                 5.1138                 8.5128

                     52                     53                     54
                      A                      A                      A
 Frequencies --   1606.1096              1616.7429              1801.4778
 Red. masses --      6.2846                 9.7600                11.6630
 Frc consts  --      9.5517                15.0307                22.3007
 IR Inten    --    118.3449                10.8580               168.9304

                     55                     56                     57
                      A                      A                      A
 Frequencies --   1838.6973              3066.6887              3067.8572
 Red. masses --     12.0466                 1.0302                 1.0297
 Frc consts  --     23.9957                 5.7082                 5.7098
 IR Inten    --    192.6990                35.9470                32.1328

                     58                     59                     60
                      A                      A                      A
 Frequencies --   3143.7778              3146.3833              3179.9894
 Red. masses --      1.1069                 1.1071                 1.1073
 Frc consts  --      6.4458                 6.4573                 6.5975
 IR Inten    --     18.9813                17.8896                13.8810

                     61                     62                     63
                      A                      A                      A
 Frequencies --   3183.9994              3249.9365              3259.0839
 Red. masses --      1.1068                 1.0929                 1.0926
 Frc consts  --      6.6112                 6.8009                 6.8378
 IR Inten    --     12.9164                 5.3473                 2.3605

 - Thermochemistry -
 -------------------
 Temperature   298.150 Kelvin.  Pressure   1.00000 Atm.
 Atom     1 has atomic number  6 and mass  12.00000

 Molecular mass:   272.96367 amu.
 Principal axes and moments of inertia in atomic units:
                           1         2         3
     Eigenvalues --  4624.782175404.77609**********
           X            0.91480   0.40391   0.00000
           Y           -0.40391   0.91480  -0.00000
           Z           -0.00000  -0.00000   1.00000
 This molecule is an asymmetric top.
 Rotational symmetry number  1.
 Warning -- assumption of classical behavior for rotation
           may cause significant error
 Rotational temperatures (Kelvin)      0.01873     0.01603     0.00866
 Rotational constants (GHZ):           0.39023     0.33392     0.18035
 Zero-point vibrational energy     430908.4 (Joules/Mol)
                                  102.98958 (Kcal/Mol)
 Warning -- explicit consideration of  21 degrees of freedom as
           vibrations may cause significant error
 Vibrational temperatures:     43.82    56.11   108.91   129.55   157.50
          (Kelvin)            164.05   182.82   191.36   244.87   294.33
                              316.80   321.18   378.87   420.02   497.43
                              506.83   565.55   683.31   728.57   777.26
                              817.85  1014.86  1070.45  1076.61  1132.98
                             1144.78  1213.61  1296.34  1344.88  1382.36
                             1450.93  1458.02  1501.96  1615.15  1696.73
                             1698.30  1701.99  1704.11  1752.57  1766.46
                             1837.62  1905.94  1932.79  2066.87  2110.31
                             2133.06  2138.24  2151.32  2153.54  2168.55
                             2172.28  2310.83  2326.13  2591.92  2645.48
                             4412.28  4413.96  4523.20  4526.94  4575.30
                             4581.06  4675.93  4689.09

 Zero-point correction=                           0.164124 (Hartree/Particle)
 Thermal correction to Energy=                    0.178987
 Thermal correction to Enthalpy=                  0.179931
 Thermal correction to Gibbs Free Energy=         0.119321
 Sum of electronic and zero-point Energies=          -3275.027872
 Sum of electronic and thermal Energies=             -3275.013009
 Sum of electronic and thermal Enthalpies=           -3275.012065
 Sum of electronic and thermal Free Energies=        -3275.072676

                     E (Thermal)             CV                S
                      KCal/Mol        Cal/Mol-Kelvin    Cal/Mol-Kelvin
 Total                  112.316             51.145            127.566
 Electronic               0.000              0.000              0.000
 Translational            0.889              2.981             42.711
 Rotational               0.889              2.981             33.880
 Vibrational            110.539             45.183             50.975
 Vibration     1          0.594              1.984              5.799
 Vibration     2          0.594              1.981              5.309
 Vibration     3          0.599              1.965              4.000
 Vibration     4          0.602              1.956              3.659
 Vibration     5          0.606              1.942              3.278
 Vibration     6          0.607              1.938              3.199
 Vibration     7          0.611              1.926              2.990
 Vibration     8          0.613              1.920              2.902
 Vibration     9          0.625              1.879              2.433
 Vibration    10          0.640              1.833              2.092
 Vibration    11          0.647              1.810              1.958
 Vibration    12          0.649              1.806              1.933
 Vibration    13          0.670              1.740              1.640
 Vibration    14          0.687              1.689              1.463
 Vibration    15          0.724              1.584              1.186
 Vibration    16          0.729              1.571              1.156
 Vibration    17          0.760              1.485              0.988
 Vibration    18          0.832              1.306              0.724
 Vibration    19          0.862              1.236              0.642
 Vibration    20          0.895              1.161              0.565
 Vibration    21          0.924              1.100              0.507

                           ! Non-Optimized Parameters !
 Normal termination of Gaussian 16 at Tue Sep 17 09:59:22 2024.

 ----------------------------------------------------------------------
 #p M062X/def2tzvp geom=check guess=read scf(xqc,tight) integral(grid=u
 ltrafine) scrf(SMD, solvent=1,4-Dioxane) polar prop=efg volume
 ----------------------------------------------------------------------

 ---
 spe
 ---
 Structure from the checkpoint file:  "smiles_00085_conf_1.chk"
 Charge =  0 Multiplicity = 1

 SCF Done:  E(RM062X) =  -3277.63776376     A.U. after   12 cycles

  Exact polarizability:     203.447      -5.546     198.114      -0.005      -0.001      92.995
 Approx polarizability:     206.322     -10.769     213.375      -0.005       0.001     115.777

 Normal termination of Gaussian 16 at Tue Sep 17 10:48:18 2024.
 Gaussian 16:  ES64L-G16RevC.02  7-Dec-2021

 ----------------------------------------------------------------------
 #p M062X/def2tzvp geom=check guess=read scf(xqc,tight) integral(grid=u
 ltrafine) scrf(SMD, solvent=1,4-Dioxane) nmr=giao
 ----------------------------------------------------------------------

 ---
 spe
 ---
 Structure from the checkpoint file:  "smiles_00085_conf_1.chk"
 Charge =  0 Multiplicity = 1

                         Standard orientation:
 ---------------------------------------------------------------------
 Center     Atomic      Atomic             Coordinates (Angstroms)
 Number     Number       Type             X           Y           Z
 ---------------------------------------------------------------------
      1          6           0        2.550157    4.154191   -0.000012
      2          8           0        2.084176    2.794978   -0.000046
      3          6           0        0.738218    2.655407    0.000011
      4          8           0       -0.036511    3.581510    0.000020
      5          6           0        0.345839    1.200802    0.000035
      6          6           0        1.318044    0.192774   -0.000023
      7          6           0        0.878002   -1.126760    0.000007
      8         35           0        2.142176   -2.546876   -0.000023
      9          6           0       -0.481885   -1.404357    0.000069
     10          6           0       -1.361287   -0.314459    0.000072
     11          6           0       -2.833601   -0.626191    0.000124
     12          8           0       -3.262264   -1.764206    0.000014
     13          8           0       -3.595739    0.471006    0.000075
     14          6           0       -5.011969    0.225795   -0.000190
     15          7           0       -0.968880    0.960333    0.000061
     16          1           0        2.191806    4.679767    0.887990
     17          1           0        3.637555    4.092145    0.000689
     18          1           0        2.192972    4.679389   -0.888714
     19          1           0        2.370281    0.439807   -0.000090
     20          1           0       -0.873341   -2.412985    0.000103
     21          1           0       -5.301998   -0.338141    0.889451
     22          1           0       -5.301141   -0.341649   -0.887853
     23          1           0       -5.476529    1.210498   -0.002274
 ---------------------------------------------------------------------

 SCF Done:  E(RM062X) =  -3277.63776376     A.U. after    1 cycles

      1  C    Isotropic =   130.1774   Anisotropy =    72.9702

      2  O    Isotropic =   132.2245   Anisotropy =   173.3423

      3  C    Isotropic =     4.2687   Anisotropy =    92.8297

      4  O    Isotropic =  -152.8993   Anisotropy =   741.3239

      5  C    Isotropic =    13.4748   Anisotropy =   170.3845

      6  C    Isotropic =    31.0247   Anisotropy =   191.5759

      7  C    Isotropic =     8.3678   Anisotropy =   175.9306

      8  Br   Isotropic =  2019.6543   Anisotropy =  1295.6474

      9  C    Isotropic =    30.4646   Anisotropy =   196.0122

     10  C    Isotropic =    12.4228   Anisotropy =   172.5051

     11  C    Isotropic =    -0.2440   Anisotropy =   103.8880

     12  O    Isotropic =  -132.5704   Anisotropy =   694.2878

     13  O    Isotropic =   130.2428   Anisotropy =   190.7128

     14  C    Isotropic =   129.7650   Anisotropy =    73.6366

     15  N    Isotropic =  -149.6563   Anisotropy =   670.6808

     16  H    Isotropic =    27.8541   Anisotropy =     8.2072

     17  H    Isotropic =    27.9531   Anisotropy =     7.5393

     18  H    Isotropic =    27.8560   Anisotropy =     8.2109

     19  H    Isotropic =    22.6398   Anisotropy =    14.8093

     20  H    Isotropic =    22.4139   Anisotropy =    13.7713

     21  H    Isotropic =    27.8882   Anisotropy =     8.0601

     22  H    Isotropic =    27.8831   Anisotropy =     8.0490

     23  H    Isotropic =    27.8384   Anisotropy =     7.5756

 The electronic state is 1-A.
 Alpha  occ. eigenvalues -- -485.39455 -63.37926 -57.19877 -57.19634 -57.19622
 Alpha  occ. eigenvalues --  -19.68321 -19.68035 -19.62852 -19.62836 -14.78088
 Alpha  occ. eigenvalues --  -10.68685 -10.68666 -10.63597 -10.61683 -10.61558
 Alpha  occ. eigenvalues --  -10.59321 -10.58986 -10.58581 -10.58374  -9.04568
 Alpha  occ. eigenvalues --   -6.86996  -6.86097  -6.86053  -2.90374  -2.90052
 Alpha  occ. eigenvalues --   -2.90008  -2.89171  -2.89170  -1.24355  -1.24290
 Alpha  occ. eigenvalues --   -1.15140  -1.14967  -1.08831  -0.96520  -0.91584
 Alpha  occ. eigenvalues --   -0.86982  -0.84194  -0.82513  -0.76048  -0.74489
 Alpha  occ. eigenvalues --   -0.66737  -0.65774  -0.63175  -0.60929  -0.58698
 Alpha  occ. eigenvalues --   -0.58244  -0.57879  -0.57412  -0.56653  -0.55416
 Alpha  occ. eigenvalues --   -0.51628  -0.50767  -0.50040  -0.47865  -0.47719
 Alpha  occ. eigenvalues --   -0.47002  -0.46447  -0.44236  -0.43616  -0.41848
 Alpha  occ. eigenvalues --   -0.38713  -0.38694  -0.38419  -0.37483  -0.36415
 Alpha  occ. eigenvalues --   -0.35020  -0.34538  -0.33781
 Alpha virt. eigenvalues --   -0.04776  -0.04219   0.02078   0.04752   0.07874
 Alpha virt. eigenvalues --    0.08572   0.10304   0.10425   0.10943   0.11782
 Alpha virt. eigenvalues --    0.12662   0.13178   0.14609   0.15191   0.15646

 Mulliken charges:
               1
     1  C   -0.271680
     2  O   -0.274498
     3  C    0.324163
     4  O   -0.315814
     5  C    0.083990
     6  C   -0.134621
     7  C    0.038529
     8  Br  -0.059790
     9  C   -0.150959
    10  C    0.101832
    11  C    0.344754
    12  O   -0.363512
    13  O   -0.233690
    14  C   -0.276944
    15  N   -0.194513
    16  H    0.163546
    17  H    0.158378
    18  H    0.163547
    19  H    0.202059
    20  H    0.209711
    21  H    0.161062
    22  H    0.161043
    23  H    0.163409
 Sum of Mulliken charges =  -0.00000

 Dipole moment (field-independent basis, Debye):
    X=              2.2466    Y=              0.4737    Z=             -0.0002  Tot=              2.2960
 Quadrupole moment (field-independent basis, Debye-Ang):
   XX=            -81.3818   YY=           -101.9407   ZZ=            -97.3366
   XY=              7.0766   XZ=              0.0014   YZ=             -0.0004

 Normal termination of Gaussian 16 at Tue Sep 17 11:06:45 2024.
