 Gaussian 16, Revision C.02,

 ----------------------------------------------------------------------
 #p B3LYP/gen pseudo=read EmpiricalDispersion=GD3BJ opt freq scf(xqc,ti
 ght) integral(grid=ultrafine)
 ----------------------------------------------------------------------

 ----------------------------------
 opt-freq conformers_unique/conf_aa
 ----------------------------------
 Symbolic Z-matrix:
 Charge =  0 Multiplicity = 1

 SCF Done:  E(RB3LYP) =  -335.292041796     A.U. after   15 cycles
 SCF Done:  E(RB3LYP) =  -335.293605600     A.U. after   13 cycles
 SCF Done:  E(RB3LYP) =  -335.293069083     A.U. after   15 cycles
 SCF Done:  E(RB3LYP) =  -335.293753506     A.U. after   11 cycles
 SCF Done:  E(RB3LYP) =  -335.293754493     A.U. after    8 cycles
 Optimization completed.
    -- Stationary point found.
 Normal termination of Gaussian 16 at Tue Sep 17 09:50:48 2024.

 ------------------------------------------------------------------
 #P Geom=AllCheck Guess=TCheck SCRF=Check GenChk RB3LYP/ChkBas Freq
 ------------------------------------------------------------------

 Structure from the checkpoint file:  "smiles_00056_conf_0.chk"
 ----------------------------------
 opt-freq conformers_unique/conf_aa
 ----------------------------------
 Charge =  0 Multiplicity = 1

 SCF Done:  E(RB3LYP) =  -335.293754493     A.U. after    1 cycles

                      1                      2                      3
                      A                      A                      A
 Frequencies --    110.3305               116.6859               179.1717
 Red. masses --      4.7997                15.8240                 6.1974
 Frc consts  --      0.0344                 0.1269                 0.1172
 IR Inten    --      1.7317                 2.8158                 0.1240

                      4                      5                      6
                      A                      A                      A
 Frequencies --    235.3260               258.9593               392.5409
 Red. masses --      6.2773                11.6719                 4.5095
 Frc consts  --      0.2048                 0.4612                 0.4094
 IR Inten    --      0.2198                 3.4789                 1.4235

                      7                      8                      9
                      A                      A                      A
 Frequencies --    459.0874               489.1425               576.8418
 Red. masses --      4.0026                 9.0655                 8.3758
 Frc consts  --      0.4970                 1.2779                 1.6421
 IR Inten    --      9.2860                 2.6989                 0.4815

                     10                     11                     12
                      A                      A                      A
 Frequencies --    578.5501               658.1483               732.4121
 Red. masses --      4.6784                 6.8147                 3.4648
 Frc consts  --      0.9226                 1.7392                 1.0951
 IR Inten    --      4.4002                13.5206                 2.7668

                     13                     14                     15
                      A                      A                      A
 Frequencies --    776.7819               786.1722               888.9099
 Red. masses --      1.3394                 6.3624                 1.3419
 Frc consts  --      0.4762                 2.3169                 0.6247
 IR Inten    --     41.6388                 3.3458                 0.1946

                     16                     17                     18
                      A                      A                      A
 Frequencies --    968.0537              1004.8423              1031.9563
 Red. masses --      1.3597                 1.3075                 7.7389
 Frc consts  --      0.7508                 0.7778                 4.8557
 IR Inten    --      1.3394                 0.0282                48.1156

                     19                     20                     21
                      A                      A                      A
 Frequencies --   1072.1335              1146.7525              1195.2152
 Red. masses --      2.2449                 1.6415                 1.0912
 Frc consts  --      1.5203                 1.2718                 0.9185
 IR Inten    --      2.7978                 1.6577                 0.3130

                     22                     23                     24
                      A                      A                      A
 Frequencies --   1236.0351              1292.3182              1335.4879
 Red. masses --      2.9857                 1.4988                 8.1399
 Frc consts  --      2.6876                 1.4748                 8.5536
 IR Inten    --      0.7468                 3.2077                 3.0524

                     25                     26                     27
                      A                      A                      A
 Frequencies --   1469.7023              1506.9819              1614.0053
 Red. masses --      2.1191                 2.4966                 5.4343
 Frc consts  --      2.6969                 3.3405                 8.3407
 IR Inten    --     24.3726                23.0485                10.6673

                     28                     29                     30
                      A                      A                      A
 Frequencies --   1641.3627              2353.0421              3199.1754
 Red. masses --      5.9340                12.6775                 1.0869
 Frc consts  --      9.4191                41.3565                 6.5541
 IR Inten    --     12.7756                14.3310                 1.3846

                     31                     32                     33
                      A                      A                      A
 Frequencies --   3211.8072              3223.3941              3228.1343
 Red. masses --      1.0906                 1.0948                 1.0965
 Frc consts  --      6.6283                 6.7024                 6.7324
 IR Inten    --      4.6858                 3.8036                 6.0592

 - Thermochemistry -
 -------------------
 Temperature   298.150 Kelvin.  Pressure   1.00000 Atm.
 Atom     1 has atomic number  7 and mass  14.00307

 Molecular mass:   228.93477 amu.
 Principal axes and moments of inertia in atomic units:
                           1         2         3
     Eigenvalues --  1095.128812508.190703603.31951
           X            0.99922  -0.03943   0.00006
           Y            0.03943   0.99922   0.00006
           Z           -0.00006  -0.00006   1.00000
 This molecule is an asymmetric top.
 Rotational symmetry number  1.
 Warning -- assumption of classical behavior for rotation
           may cause significant error
 Rotational temperatures (Kelvin)      0.07909     0.03453     0.02404
 Rotational constants (GHZ):           1.64797     0.71954     0.50086
 Zero-point vibrational energy     233089.1 (Joules/Mol)
                                   55.70964 (Kcal/Mol)
 Warning -- explicit consideration of  10 degrees of freedom as
           vibrations may cause significant error
 Vibrational temperatures:    158.74   167.88   257.79   338.58   372.58
          (Kelvin)            564.78   660.52   703.77   829.95   832.40
                              946.93  1053.78  1117.62  1131.13  1278.94
                             1392.81  1445.74  1484.75  1542.56  1649.92
                             1719.65  1778.38  1859.36  1921.47  2114.57
                             2168.21  2322.19  2361.55  3385.50  4602.90
                             4621.07  4637.75  4644.57

 Zero-point correction=                           0.088779 (Hartree/Particle)
 Thermal correction to Energy=                    0.096439
 Thermal correction to Enthalpy=                  0.097383
 Thermal correction to Gibbs Free Energy=         0.054462
 Sum of electronic and zero-point Energies=           -335.204976
 Sum of electronic and thermal Energies=              -335.197316
 Sum of electronic and thermal Enthalpies=            -335.196372
 Sum of electronic and thermal Free Energies=         -335.239293

                     E (Thermal)             CV                S
                      KCal/Mol        Cal/Mol-Kelvin    Cal/Mol-Kelvin
 Total                   60.516             27.664             90.335
 Electronic               0.000              0.000              0.000
 Translational            0.889              2.981             42.187
 Rotational               0.889              2.981             30.671
 Vibrational             58.739             21.702             17.477
 Vibration     1          0.606              1.941              3.263
 Vibration     2          0.608              1.936              3.155
 Vibration     3          0.629              1.868              2.337
 Vibration     4          0.655              1.787              1.838
 Vibration     5          0.668              1.748              1.669
 Vibration     6          0.760              1.486              0.990
 Vibration     7          0.817              1.341              0.769
 Vibration     8          0.845              1.274              0.686
 Vibration     9          0.933              1.081              0.491
 Vibration    10          0.935              1.078              0.488

 Optimization completed.
    -- Stationary point found.
 Normal termination of Gaussian 16 at Tue Sep 17 09:51:16 2024.

 ----------------------------------------------------------------------
 #p M062X/def2tzvp geom=check guess=read scf(xqc,tight) integral(grid=u
 ltrafine) scrf(SMD, solvent=1,4-Dioxane) polar prop=efg volume
 ----------------------------------------------------------------------

 ---
 spe
 ---
 Structure from the checkpoint file:  "smiles_00056_conf_0.chk"
 Charge =  0 Multiplicity = 1

 SCF Done:  E(RM062X) =  -621.504788650     A.U. after   21 cycles

  Exact polarizability:     174.589     -12.371     153.154      -0.005      -0.005      71.078
 Approx polarizability:     186.531     -14.814     178.501      -0.005      -0.005      91.041

 1\1\GINC-HPC-52-14\SP\RM062X\def2TZVP\C7H4I1N1\MANTIND\17-Sep-2024\0\\
 #p M062X/def2tzvp geom=check guess=read scf(xqc,tight) integral(grid=u
 ltrafine) scrf(SMD, solvent=1,4-Dioxane) polar prop=efg volume\\spe\\0
 ,1\N,0,-0.5250793387,-3.1736057317,-0.0001207869\C,0,-0.9293239619,-2.
 0835503975,-0.0000338869\C,0,-1.4829388088,-0.7639556929,0.0000006339\
 C,0,-2.8830994698,-0.6242487332,-0.0000825867\C,0,-3.4664453215,0.6370
 189679,-0.0000472\C,0,-2.6576545662,1.7742795609,0.0000720604\C,0,-1.2
 67449713,1.6540926384,0.0001535438\C,0,-0.6799041615,0.3909777086,0.00

 Normal termination of Gaussian 16 at Tue Sep 17 10:12:11 2024.
 Gaussian 16:  ES64L-G16RevC.02  7-Dec-2021

 ----------------------------------------------------------------------
 #p M062X/def2tzvp geom=check guess=read scf(xqc,tight) integral(grid=u
 ltrafine) scrf(SMD, solvent=1,4-Dioxane) nmr=giao
 ----------------------------------------------------------------------

 ---
 spe
 ---
 Structure from the checkpoint file:  "smiles_00056_conf_0.chk"
 Charge =  0 Multiplicity = 1

                         Standard orientation:
 ---------------------------------------------------------------------
 Center     Atomic      Atomic             Coordinates (Angstroms)
 Number     Number       Type             X           Y           Z
 ---------------------------------------------------------------------
      1          7           0        0.275444    3.191834   -0.000241
      2          6           0        0.703351    2.110849   -0.000154
      3          6           0        1.285595    0.803634   -0.000120
      4          6           0        2.688468    0.694477   -0.000203
      5          6           0        3.299165   -0.553777   -0.000168
      6          6           0        2.515354   -1.708395   -0.000048
      7          6           0        1.122860   -1.618537    0.000033
      8          6           0        0.507924   -0.368528   -0.000004
      9         53           0       -1.619414   -0.269325    0.000115
     10          1           0        3.279941    1.603373   -0.000294
     11          1           0        4.381503   -0.625380   -0.000234
     12          1           0        2.984564   -2.687176   -0.000018
     13          1           0        0.518512   -2.517773    0.000126
 ---------------------------------------------------------------------

 SCF Done:  E(RM062X) =  -621.504788650     A.U. after    1 cycles

      1  N    Isotropic =   -88.9941   Anisotropy =   446.9370

      2  C    Isotropic =    50.7306   Anisotropy =   377.3444

      3  C    Isotropic =    43.4559   Anisotropy =   154.6659

      4  C    Isotropic =    24.5504   Anisotropy =   218.9459

      5  C    Isotropic =    34.7173   Anisotropy =   222.8995

      6  C    Isotropic =    28.0828   Anisotropy =   220.0216

      7  C    Isotropic =    24.5011   Anisotropy =   190.6800

      8  C    Isotropic =    20.0875   Anisotropy =   164.3977

      9  I    Isotropic =   431.9376   Anisotropy =    71.8998

     10  H    Isotropic =    23.1862   Anisotropy =     8.1613

     11  H    Isotropic =    23.6395   Anisotropy =     5.4181

     12  H    Isotropic =    23.4664   Anisotropy =     6.3308

     13  H    Isotropic =    23.2992   Anisotropy =    12.8615

 The electronic state is 1-A.
 Alpha  occ. eigenvalues --  -14.76631 -10.62303 -10.60710 -10.59259 -10.57968
 Alpha  occ. eigenvalues --  -10.57448 -10.57359 -10.56870  -7.11618  -5.11007
 Alpha  occ. eigenvalues --   -5.09907  -5.09881  -2.07833  -2.07385  -2.07369
 Alpha  occ. eigenvalues --   -2.06449  -2.06448  -1.02888  -0.99387  -0.89219
 Alpha  occ. eigenvalues --   -0.88313  -0.79411  -0.74391  -0.70723  -0.64136
 Alpha  occ. eigenvalues --   -0.57332  -0.56059  -0.52828  -0.49444  -0.49077
 Alpha  occ. eigenvalues --   -0.46277  -0.44181  -0.42909  -0.42211  -0.40283
 Alpha  occ. eigenvalues --   -0.37003  -0.33254  -0.33068  -0.30702
 Alpha virt. eigenvalues --   -0.03665  -0.01562  -0.00898   0.06464   0.07855
 Alpha virt. eigenvalues --    0.09979   0.10240   0.10422   0.12749   0.13916
 Alpha virt. eigenvalues --    0.15584   0.16590   0.16758   0.17729   0.19279

 Mulliken charges:
               1
     1  N   -0.026773
     2  C   -0.194792
     3  C    0.175570
     4  C   -0.183884
     5  C   -0.143787
     6  C   -0.135763
     7  C   -0.161537
     8  C   -0.011371
     9  I   -0.047122
    10  H    0.188841
    11  H    0.175622
    12  H    0.176712
    13  H    0.188284
 Sum of Mulliken charges =  -0.00000

 Dipole moment (field-independent basis, Debye):
    X=              3.4547    Y=             -4.7890    Z=              0.0001  Tot=              5.9050
 Quadrupole moment (field-independent basis, Debye-Ang):
   XX=            -57.0186   YY=            -81.3561   ZZ=            -75.5686
   XY=             -1.2433   XZ=             -0.0010   YZ=              0.0006

 1\1\GINC-HPC-52-14\SP\RM062X\def2TZVP\C7H4I1N1\MANTIND\17-Sep-2024\0\\
 #p M062X/def2tzvp geom=check guess=read scf(xqc,tight) integral(grid=u
 ltrafine) scrf(SMD, solvent=1,4-Dioxane) nmr=giao\\spe\\0,1\N,0,-0.525
 0793387,-3.1736057317,-0.0001207869\C,0,-0.9293239619,-2.0835503975,-0
 .0000338869\C,0,-1.4829388088,-0.7639556929,0.0000006339\C,0,-2.883099
 4698,-0.6242487332,-0.0000825867\C,0,-3.4664453215,0.6370189679,-0.000
 0472\C,0,-2.6576545662,1.7742795609,0.0000720604\C,0,-1.267449713,1.65
 40926384,0.0001535438\C,0,-0.6799041615,0.3909777086,0.0001166322\I,0,

 Normal termination of Gaussian 16 at Tue Sep 17 10:17:59 2024.
