 Gaussian 16, Revision C.02,

 ----------------------------------------------------------------------
 #p B3LYP/6-31G(d,p) EmpiricalDispersion=GD3BJ opt freq scf(xqc,tight)
 integral(grid=ultrafine)
 ----------------------------------------------------------------------

 ----------------------------------
 opt-freq conformers_unique/conf_aa
 ----------------------------------
 Symbolic Z-matrix:
 Charge =  0 Multiplicity = 1

 SCF Done:  E(RB3LYP) =  -3012.41229777     A.U. after   15 cycles
 SCF Done:  E(RB3LYP) =  -3012.41387522     A.U. after   12 cycles
 SCF Done:  E(RB3LYP) =  -3012.41394784     A.U. after   10 cycles
 SCF Done:  E(RB3LYP) =  -3012.41395853     A.U. after    9 cycles
 Optimization completed.
    -- Stationary point found.
 Normal termination of Gaussian 16 at Tue Sep 17 09:44:47 2024.

 ----------------------------------------------------------------------
 #P Geom=AllCheck Guess=TCheck SCRF=Check GenChk RB3LYP/6-31G(d,p) Freq
 ----------------------------------------------------------------------

 Structure from the checkpoint file:  "smiles_00062_conf_0.chk"
 ----------------------------------
 opt-freq conformers_unique/conf_aa
 ----------------------------------
 Charge =  0 Multiplicity = 1

 SCF Done:  E(RB3LYP) =  -3012.41395853     A.U. after    1 cycles

                      1                      2                      3
                      A                      A                      A
 Frequencies --     87.7389               145.6384               168.4810
 Red. masses --      5.6042                 3.5534                 1.2876
 Frc consts  --      0.0254                 0.0444                 0.0215
 IR Inten    --      0.2573                 1.4095                 0.0154

                      4                      5                      6
                      A                      A                      A
 Frequencies --    173.9534               206.2758               249.6293
 Red. masses --      7.2576                 2.2880                 6.1069
 Frc consts  --      0.1294                 0.0574                 0.2242
 IR Inten    --      0.1306                 1.5674                 5.9768

                      7                      8                      9
                      A                      A                      A
 Frequencies --    293.1721               296.1700               434.6764
 Red. masses --      4.1959                 5.4931                 3.2217
 Frc consts  --      0.2125                 0.2839                 0.3586
 IR Inten    --      1.0060                 0.1378                 2.9420

                     10                     11                     12
                      A                      A                      A
 Frequencies --    500.2777               510.1219               535.0411
 Red. masses --      4.7527                 5.1262                 5.7377
 Frc consts  --      0.7008                 0.7859                 0.9677
 IR Inten    --      1.8591                 6.1307                 0.3067

                     13                     14                     15
                      A                      A                      A
 Frequencies --    535.0517               573.5138               595.1788
 Red. masses --      3.5132                 3.6384                 7.6585
 Frc consts  --      0.5926                 0.7051                 1.5984
 IR Inten    --      0.3279                 0.0233                15.1441

                     16                     17                     18
                      A                      A                      A
 Frequencies --    675.2613               742.6557               779.0732
 Red. masses --      4.3735                 4.8838                 1.3214
 Frc consts  --      1.1750                 1.5870                 0.4725
 IR Inten    --      0.3627                 1.0368                46.5525

                     19                     20                     21
                      A                      A                      A
 Frequencies --    795.3765               855.6658               880.1576
 Red. masses --      3.4632                 6.4303                 1.4284
 Frc consts  --      1.2908                 2.7739                 0.6520
 IR Inten    --      0.0264                39.1076                10.0524

                     22                     23                     24
                      A                      A                      A
 Frequencies --    895.0057               898.8336               968.5201
 Red. masses --      1.4636                 7.0541                 1.3326
 Frc consts  --      0.6908                 3.3577                 0.7365
 IR Inten    --      3.9635                52.0915                 1.3300

                     25                     26                     27
                      A                      A                      A
 Frequencies --   1002.1662              1011.0508              1053.0760
 Red. masses --      1.2817                 1.8338                 2.4118
 Frc consts  --      0.7584                 1.1045                 1.5759
 IR Inten    --      0.1026                 0.9912                 1.6323

                     28                     29                     30
                      A                      A                      A
 Frequencies --   1066.8460              1091.6518              1127.6278
 Red. masses --      1.5692                 2.5160                 2.3092
 Frc consts  --      1.0523                 1.7666                 1.7300
 IR Inten    --      2.3635                 1.3758                51.8920

                     31                     32                     33
                      A                      A                      A
 Frequencies --   1175.1218              1191.7329              1266.9205
 Red. masses --      1.3637                 1.2289                 2.0020
 Frc consts  --      1.1095                 1.0283                 1.8933
 IR Inten    --     34.3855                 4.2465                 5.4593

                     34                     35                     36
                      A                      A                      A
 Frequencies --   1293.6760              1335.8268              1372.7956
 Red. masses --      1.9355                 4.8697                 3.1672
 Frc consts  --      1.9085                 5.1198                 3.5167
 IR Inten    --      8.4508                64.4717                 3.1212

                     37                     38                     39
                      A                      A                      A
 Frequencies --   1412.0459              1426.8781              1454.3020
 Red. masses --      4.4265                 1.3496                 2.4483
 Frc consts  --      5.2000                 1.6189                 3.0508
 IR Inten    --      1.9745                 0.6087                21.1684

                     40                     41                     42
                      A                      A                      A
 Frequencies --   1495.7702              1502.7216              1509.0136
 Red. masses --      1.0437                 1.7808                 1.4742
 Frc consts  --      1.3758                 2.3693                 1.9778
 IR Inten    --      7.6011                 2.2889                32.5158

                     43                     44                     45
                      A                      A                      A
 Frequencies --   1559.2428              1615.9510              1639.0410
 Red. masses --      3.6597                 8.7207                 6.3643
 Frc consts  --      5.2423                13.4172                10.0735
 IR Inten    --     21.8271                83.2500               126.5988

                     46                     47                     48
                      A                      A                      A
 Frequencies --   1673.7563              3046.1346              3103.5050
 Red. masses --      5.8507                 1.0377                 1.1005
 Frc consts  --      9.6570                 5.6730                 6.2452
 IR Inten    --      5.1348                14.6864                11.4458

                     49                     50                     51
                      A                      A                      A
 Frequencies --   3140.9288              3188.3669              3200.5101
 Red. masses --      1.1014                 1.0860                 1.0896
 Frc consts  --      6.4017                 6.5045                 6.5757
 IR Inten    --     13.6087                 1.6269                10.6097

                     52                     53                     54
                      A                      A                      A
 Frequencies --   3212.9472              3221.1428              3224.5897
 Red. masses --      1.0946                 1.0961                 1.0925
 Frc consts  --      6.6574                 6.7009                 6.6929
 IR Inten    --     19.7594                10.0342                 1.7081

 - Thermochemistry -
 -------------------
 Temperature   298.150 Kelvin.  Pressure   1.00000 Atm.
 Atom     1 has atomic number  6 and mass  12.00000

 Molecular mass:   220.98401 amu.
 Principal axes and moments of inertia in atomic units:
                           1         2         3
     Eigenvalues --  1237.704434642.746635869.26268
           X            0.99997  -0.00768   0.00000
           Y            0.00768   0.99997   0.00000
           Z           -0.00000  -0.00000   1.00000
 This molecule is an asymmetric top.
 Rotational symmetry number  1.
 Warning -- assumption of classical behavior for rotation
           may cause significant error
 Rotational temperatures (Kelvin)      0.06998     0.01866     0.01476
 Rotational constants (GHZ):           1.45814     0.38872     0.30749
 Zero-point vibrational energy     403206.2 (Joules/Mol)
                                   96.36859 (Kcal/Mol)
 Warning -- explicit consideration of  15 degrees of freedom as
           vibrations may cause significant error
 Vibrational temperatures:    126.24   209.54   242.41   250.28   296.78
          (Kelvin)            359.16   421.81   426.12   625.40   719.79
                              733.95   769.80   769.82   825.16   856.33
                              971.55  1068.52  1120.91  1144.37  1231.11
                             1266.35  1287.71  1293.22  1393.48  1441.89
                             1454.68  1515.14  1534.95  1570.64  1622.40
                             1690.74  1714.64  1822.82  1861.31  1921.96
                             1975.15  2031.62  2052.96  2092.42  2152.08
                             2162.08  2171.13  2243.40  2324.99  2358.21
                             2408.16  4382.71  4465.25  4519.10  4587.35
                             4604.82  4622.71  4634.51  4639.47

 Zero-point correction=                           0.153573 (Hartree/Particle)
 Thermal correction to Energy=                    0.163335
 Thermal correction to Enthalpy=                  0.164279
 Thermal correction to Gibbs Free Energy=         0.117389
 Sum of electronic and zero-point Energies=          -3012.260385
 Sum of electronic and thermal Energies=             -3012.250623
 Sum of electronic and thermal Enthalpies=           -3012.249679
 Sum of electronic and thermal Free Energies=        -3012.296570

                     E (Thermal)             CV                S
                      KCal/Mol        Cal/Mol-Kelvin    Cal/Mol-Kelvin
 Total                  102.494             37.994             98.690
 Electronic               0.000              0.000              0.000
 Translational            0.889              2.981             42.082
 Rotational               0.889              2.981             31.889
 Vibrational            100.717             32.032             24.719
 Vibration     1          0.601              1.958              3.710
 Vibration     2          0.617              1.907              2.728
 Vibration     3          0.625              1.881              2.452
 Vibration     4          0.627              1.875              2.392
 Vibration     5          0.641              1.831              2.076
 Vibration     6          0.662              1.763              1.733
 Vibration     7          0.688              1.686              1.456
 Vibration     8          0.690              1.681              1.438
 Vibration     9          0.795              1.395              0.844
 Vibration    10          0.856              1.249              0.657
 Vibration    11          0.865              1.228              0.633
 Vibration    12          0.890              1.173              0.576
 Vibration    13          0.890              1.172              0.576
 Vibration    14          0.930              1.089              0.498
 Vibration    15          0.953              1.042              0.458

 Optimization completed.
    -- Stationary point found.
 Normal termination of Gaussian 16 at Tue Sep 17 09:46:17 2024.

 ----------------------------------------------------------------------
 #p M062X/def2tzvp geom=check guess=read scf(xqc,tight) integral(grid=u
 ltrafine) scrf(SMD, solvent=1,4-Dioxane) polar prop=efg volume
 ----------------------------------------------------------------------

 ---
 spe
 ---
 Structure from the checkpoint file:  "smiles_00062_conf_0.chk"
 Charge =  0 Multiplicity = 1

 SCF Done:  E(RM062X) =  -3014.82388023     A.U. after   13 cycles

  Exact polarizability:     251.513     -12.592     178.673      -0.000      -0.000      87.469
 Approx polarizability:     260.476     -11.407     201.468      -0.000      -0.000     110.570

 Normal termination of Gaussian 16 at Tue Sep 17 10:36:50 2024.
 Gaussian 16:  ES64L-G16RevC.02  7-Dec-2021

 ----------------------------------------------------------------------
 #p M062X/def2tzvp geom=check guess=read scf(xqc,tight) integral(grid=u
 ltrafine) scrf(SMD, solvent=1,4-Dioxane) nmr=giao
 ----------------------------------------------------------------------

 ---
 spe
 ---
 Structure from the checkpoint file:  "smiles_00062_conf_0.chk"
 Charge =  0 Multiplicity = 1

                         Standard orientation:
 ---------------------------------------------------------------------
 Center     Atomic      Atomic             Coordinates (Angstroms)
 Number     Number       Type             X           Y           Z
 ---------------------------------------------------------------------
      1          6           0        1.228261    2.999435   -0.000000
      2          6           0        0.714281    1.585815   -0.000000
      3          6           0       -0.637565    1.327379    0.000000
      4          6           0       -1.069972   -0.020835    0.000000
      5         35           0       -2.971301   -0.326527    0.000001
      6          7           0       -0.301663   -1.064359    0.000000
      7          6           0        1.049420   -0.843014   -0.000000
      8          6           0        1.906896   -1.969702   -0.000000
      9          6           0        3.273707   -1.804279   -0.000001
     10          6           0        3.835844   -0.507523   -0.000001
     11          6           0        3.023378    0.605616   -0.000001
     12          6           0        1.612505    0.471314   -0.000000
     13          1           0        0.403757    3.715081   -0.000001
     14          1           0        1.848750    3.193617   -0.881581
     15          1           0        1.848749    3.193618    0.881581
     16          1           0       -1.366319    2.128484    0.000000
     17          1           0        1.445805   -2.951082   -0.000000
     18          1           0        3.925920   -2.671957   -0.000001
     19          1           0        4.914850   -0.389989   -0.000001
     20          1           0        3.465141    1.595963   -0.000001
 ---------------------------------------------------------------------

 SCF Done:  E(RM062X) =  -3014.82388023     A.U. after    1 cycles

      1  C    Isotropic =   165.0254   Anisotropy =    30.8329

      2  C    Isotropic =    10.3752   Anisotropy =   235.7860

      3  C    Isotropic =    38.7423   Anisotropy =   137.7107

      4  C    Isotropic =     4.1132   Anisotropy =   107.4425

      5  Br   Isotropic =  1911.7521   Anisotropy =  1531.1747

      6  N    Isotropic =  -121.1678   Anisotropy =   511.6752

      7  C    Isotropic =    13.9104   Anisotropy =   214.1297

      8  C    Isotropic =    32.2675   Anisotropy =   191.9491

      9  C    Isotropic =    32.8776   Anisotropy =   219.9852

     10  C    Isotropic =    37.1709   Anisotropy =   215.1798

     11  C    Isotropic =    39.7271   Anisotropy =   206.0352

     12  C    Isotropic =    36.2188   Anisotropy =   232.7738

     13  H    Isotropic =    29.2886   Anisotropy =     7.6833

     14  H    Isotropic =    28.9298   Anisotropy =     8.4137

     15  H    Isotropic =    28.9298   Anisotropy =     8.4137

     16  H    Isotropic =    23.7305   Anisotropy =    13.1120

     17  H    Isotropic =    22.8226   Anisotropy =     8.4799

     18  H    Isotropic =    23.1750   Anisotropy =     6.7499

     19  H    Isotropic =    23.4187   Anisotropy =     6.8031

     20  H    Isotropic =    22.8925   Anisotropy =    10.9799

 The electronic state is 1-A.
 Alpha  occ. eigenvalues -- -485.37219 -63.35716 -57.17653 -57.17429 -57.17414
 Alpha  occ. eigenvalues --  -14.76186 -10.63846 -10.59142 -10.58170 -10.56499
 Alpha  occ. eigenvalues --  -10.56030 -10.55489 -10.55324 -10.55230 -10.54864
 Alpha  occ. eigenvalues --  -10.54432  -9.02364  -6.84751  -6.83921  -6.83869
 Alpha  occ. eigenvalues --   -2.88128  -2.87835  -2.87782  -2.87009  -2.87008
 Alpha  occ. eigenvalues --   -1.07753  -0.96613  -0.93436  -0.89297  -0.84709
 Alpha  occ. eigenvalues --   -0.83069  -0.81189  -0.72519  -0.70950  -0.66923
 Alpha  occ. eigenvalues --   -0.61252  -0.59991  -0.56615  -0.53774  -0.51762
 Alpha  occ. eigenvalues --   -0.50976  -0.49624  -0.48249  -0.48170  -0.46072
 Alpha  occ. eigenvalues --   -0.45665  -0.43301  -0.42455  -0.40943  -0.36427
 Alpha  occ. eigenvalues --   -0.36156  -0.35149  -0.33974  -0.30318  -0.29057
 Alpha virt. eigenvalues --   -0.03639  -0.00259   0.03895   0.04141   0.07202
 Alpha virt. eigenvalues --    0.09370   0.10706   0.11052   0.11360   0.12561
 Alpha virt. eigenvalues --    0.14172   0.14962   0.15429   0.16402   0.16860

 Mulliken charges:
               1
     1  C   -0.546894
     2  C    0.081599
     3  C   -0.224980
     4  C    0.147207
     5  Br  -0.116063
     6  N   -0.229925
     7  C    0.197045
     8  C   -0.233162
     9  C   -0.135486
    10  C   -0.165477
    11  C   -0.233872
    12  C    0.064493
    13  H    0.158541
    14  H    0.184632
    15  H    0.184632
    16  H    0.179660
    17  H    0.170988
    18  H    0.165977
    19  H    0.166021
    20  H    0.185064
 Sum of Mulliken charges =  -0.00000

 Dipole moment (field-independent basis, Debye):
    X=              3.7908    Y=              2.9692    Z=             -0.0000  Tot=              4.8152
 Quadrupole moment (field-independent basis, Debye-Ang):
   XX=            -74.9867   YY=            -73.2324   ZZ=            -86.3300
   XY=             -2.0878   XZ=             -0.0000   YZ=             -0.0000

 Normal termination of Gaussian 16 at Tue Sep 17 10:54:17 2024.
