 Gaussian 16, Revision C.02,

 ----------------------------------------------------------------------
 #p B3LYP/6-31G(d,p) EmpiricalDispersion=GD3BJ opt freq scf(xqc,tight)
 integral(grid=ultrafine)
 ----------------------------------------------------------------------

 ----------------------------------
 opt-freq conformers_unique/conf_aa
 ----------------------------------
 Symbolic Z-matrix:
 Charge =  0 Multiplicity = 1

 SCF Done:  E(RB3LYP) =  -2835.44864036     A.U. after   13 cycles
 SCF Done:  E(RB3LYP) =  -2835.44995052     A.U. after   11 cycles
 SCF Done:  E(RB3LYP) =  -2835.44999032     A.U. after    8 cycles
 SCF Done:  E(RB3LYP) =  -2835.44999242     A.U. after    7 cycles
 Optimization completed.
    -- Stationary point found.
 Normal termination of Gaussian 16 at Tue Sep 17 09:46:32 2024.

 ----------------------------------------------------------------------
 #P Geom=AllCheck Guess=TCheck SCRF=Check GenChk RB3LYP/6-31G(d,p) Freq
 ----------------------------------------------------------------------

 Structure from the checkpoint file:  "smiles_00122_conf_0.chk"
 ----------------------------------
 opt-freq conformers_unique/conf_aa
 ----------------------------------
 Charge =  0 Multiplicity = 1

 SCF Done:  E(RB3LYP) =  -2835.44999242     A.U. after    1 cycles

                      1                      2                      3
                      A                      A                      A
 Frequencies --    172.6336               246.0376               325.6505
 Red. masses --      4.0977                 6.1986                13.3199
 Frc consts  --      0.0720                 0.2211                 0.8322
 IR Inten    --      0.3597                 1.2440                 2.8089

                      4                      5                      6
                      A                      A                      A
 Frequencies --    418.5149               433.3292               629.5751
 Red. masses --      4.1651                 4.2330                 8.9530
 Frc consts  --      0.4298                 0.4683                 2.0908
 IR Inten    --      0.0000                 1.0710                14.8861

                      7                      8                      9
                      A                      A                      A
 Frequencies --    738.8187               746.6223               926.4724
 Red. masses --      2.3188                 9.5700                 1.6851
 Frc consts  --      0.7457                 3.1431                 0.8522
 IR Inten    --     24.2849                 4.2670                 4.0163

                     10                     11                     12
                      A                      A                      A
 Frequencies --    991.4589              1004.5741              1029.1331
 Red. masses --      1.3742                 1.4904                 8.4213
 Frc consts  --      0.7959                 0.8862                 5.2550
 IR Inten    --      0.0000                 0.3502                62.1983

                     13                     14                     15
                      A                      A                      A
 Frequencies --   1116.8101              1169.5956              1215.9260
 Red. masses --      5.0667                 2.2215                 1.9075
 Frc consts  --      3.7233                 1.7905                 1.6616
 IR Inten    --      6.0616                32.9963                12.1544

                     16                     17                     18
                      A                      A                      A
 Frequencies --   1244.9091              1371.0302              1445.0823
 Red. masses --     11.3641                 1.2272                 2.2412
 Frc consts  --     10.3767                 1.3592                 2.7575
 IR Inten    --      0.0118                 2.7524                79.3859

                     19                     20                     21
                      A                      A                      A
 Frequencies --   1463.5006              1599.0322              1602.4469
 Red. masses --      1.9149                 5.8498                 5.5842
 Frc consts  --      2.4164                 8.8126                 8.4485
 IR Inten    --     15.0364                51.0205                 1.6459

                     22                     23                     24
                      A                      A                      A
 Frequencies --   3188.9874              3189.1193              3195.3603
 Red. masses --      1.0902                 1.0923                 1.0943
 Frc consts  --      6.5323                 6.5456                 6.5828
 IR Inten    --     12.8836                 6.4724                 9.4108

 - Thermochemistry -
 -------------------
 Temperature   298.150 Kelvin.  Pressure   1.00000 Atm.
 Atom     1 has atomic number 35 and mass  78.91834

 Molecular mass:   157.94796 amu.
 Principal axes and moments of inertia in atomic units:
                           1         2         3
     Eigenvalues --   298.565491800.921052099.48654
           X            1.00000   0.00000  -0.00004
           Y           -0.00000   1.00000   0.00000
           Z            0.00004  -0.00000   1.00000
 This molecule is an asymmetric top.
 Rotational symmetry number  1.
 Rotational temperatures (Kelvin)      0.29010     0.04809     0.04125
 Rotational constants (GHZ):           6.04471     1.00212     0.85961
 Zero-point vibrational energy     176237.6 (Joules/Mol)
                                   42.12179 (Kcal/Mol)
 Warning -- explicit consideration of   5 degrees of freedom as
           vibrations may cause significant error
 Vibrational temperatures:    248.38   353.99   468.54   602.15   623.46
          (Kelvin)            905.82  1063.00  1074.22  1332.99  1426.49
                             1445.36  1480.69  1606.84  1682.79  1749.45
                             1791.15  1972.61  2079.15  2105.65  2300.65
                             2305.56  4588.24  4588.43  4597.41

 Zero-point correction=                           0.067125 (Hartree/Particle)
 Thermal correction to Energy=                    0.072606
 Thermal correction to Enthalpy=                  0.073551
 Thermal correction to Gibbs Free Energy=         0.036326
 Sum of electronic and zero-point Energies=          -2835.382867
 Sum of electronic and thermal Energies=             -2835.377386
 Sum of electronic and thermal Enthalpies=           -2835.376442
 Sum of electronic and thermal Free Energies=        -2835.413667

                     E (Thermal)             CV                S
                      KCal/Mol        Cal/Mol-Kelvin    Cal/Mol-Kelvin
 Total                   45.561             19.359             78.346
 Electronic               0.000              0.000              0.000
 Translational            0.889              2.981             41.081
 Rotational               0.889              2.981             28.514
 Vibrational             43.784             13.398              8.752
 Vibration     1          0.626              1.876              2.407
 Vibration     2          0.661              1.769              1.759
 Vibration     3          0.710              1.624              1.282
 Vibration     4          0.781              1.430              0.897
 Vibration     5          0.794              1.398              0.848

 Optimization completed.
    -- Stationary point found.
 Normal termination of Gaussian 16 at Tue Sep 17 09:46:58 2024.

 ----------------------------------------------------------------------
 #p M062X/def2tzvp geom=check guess=read scf(xqc,tight) integral(grid=u
 ltrafine) scrf(SMD, solvent=1,4-Dioxane) polar prop=efg volume
 ----------------------------------------------------------------------

 ---
 spe
 ---
 Structure from the checkpoint file:  "smiles_00122_conf_0.chk"
 Charge =  0 Multiplicity = 1

 SCF Done:  E(RM062X) =  -2837.91252449     A.U. after   12 cycles

  Exact polarizability:     124.534       0.000      85.807       0.003      -0.000      49.336
 Approx polarizability:     133.914       0.001     104.690       0.003      -0.000      61.474

 Normal termination of Gaussian 16 at Tue Sep 17 09:53:11 2024.
 Gaussian 16:  ES64L-G16RevC.02  7-Dec-2021

 ----------------------------------------------------------------------
 #p M062X/def2tzvp geom=check guess=read scf(xqc,tight) integral(grid=u
 ltrafine) scrf(SMD, solvent=1,4-Dioxane) nmr=giao
 ----------------------------------------------------------------------

 ---
 spe
 ---
 Structure from the checkpoint file:  "smiles_00122_conf_0.chk"
 Charge =  0 Multiplicity = 1

                         Standard orientation:
 ---------------------------------------------------------------------
 Center     Atomic      Atomic             Coordinates (Angstroms)
 Number     Number       Type             X           Y           Z
 ---------------------------------------------------------------------
      1         35           0       -1.780763   -0.000000   -0.000070
      2          6           0        0.117487    0.000020    0.000015
      3          6           0        0.837469    1.192845    0.000039
      4          7           0        2.173757    1.196752    0.000079
      5          6           0        2.770741   -0.000002    0.000104
      6          7           0        2.173727   -1.196775    0.000077
      7          6           0        0.837467   -1.192835    0.000044
      8          1           0        0.328875    2.153373    0.000011
      9          1           0        3.857640   -0.000026    0.000122
     10          1           0        0.328823   -2.153339    0.000008
 ---------------------------------------------------------------------

 SCF Done:  E(RM062X) =  -2837.91252449     A.U. after    1 cycles

      1  Br   Isotropic =  2162.5161   Anisotropy =  1136.3990

      2  C    Isotropic =    27.0569   Anisotropy =   147.4350

      3  C    Isotropic =     0.6499   Anisotropy =   201.3129

      4  N    Isotropic =  -117.6440   Anisotropy =   579.8134

      5  C    Isotropic =     3.2442   Anisotropy =   191.2969

      6  N    Isotropic =  -117.6514   Anisotropy =   579.8163

      7  C    Isotropic =     0.6465   Anisotropy =   201.3129

      8  H    Isotropic =    22.2326   Anisotropy =    11.7978

      9  H    Isotropic =    21.9051   Anisotropy =     6.1103

     10  H    Isotropic =    22.2325   Anisotropy =    11.7982

 The electronic state is 1-A.
 Alpha  occ. eigenvalues -- -485.39387 -63.37863 -57.19815 -57.19567 -57.19562
 Alpha  occ. eigenvalues --  -14.77598 -14.77597 -10.62303 -10.62197 -10.61316
 Alpha  occ. eigenvalues --  -10.61312  -9.04511  -6.86944  -6.86024  -6.86008
 Alpha  occ. eigenvalues --   -2.90321  -2.89986  -2.89966  -2.89109  -2.89109
 Alpha  occ. eigenvalues --   -1.11636  -1.01293  -0.94784  -0.85479  -0.76559
 Alpha  occ. eigenvalues --   -0.74048  -0.62787  -0.60966  -0.52359  -0.51277
 Alpha  occ. eigenvalues --   -0.50744  -0.49306  -0.41403  -0.39540  -0.38985
 Alpha  occ. eigenvalues --   -0.37591  -0.33665  -0.32602
 Alpha virt. eigenvalues --   -0.02659  -0.01362   0.02513   0.09685   0.12019
 Alpha virt. eigenvalues --    0.12352   0.12704   0.14327   0.15872   0.17666
 Alpha virt. eigenvalues --    0.22109   0.22504   0.22876   0.23597   0.25220

 Mulliken charges:
               1
     1  Br  -0.071048
     2  C    0.012014
     3  C   -0.027928
     4  N   -0.250592
     5  C    0.068636
     6  N   -0.250593
     7  C   -0.027937
     8  H    0.188319
     9  H    0.170811
    10  H    0.188318
 Sum of Mulliken charges =  -0.00000

 Dipole moment (field-independent basis, Debye):
    X=             -0.9681    Y=              0.0000    Z=             -0.0000  Tot=              0.9681
 Quadrupole moment (field-independent basis, Debye-Ang):
   XX=            -54.3503   YY=            -53.6439   ZZ=            -53.6201
   XY=              0.0000   XZ=             -0.0000   YZ=             -0.0000

 Normal termination of Gaussian 16 at Tue Sep 17 09:55:54 2024.
