 Gaussian 16, Revision C.02,

 ----------------------------------------------------------------------
 #p B3LYP/6-31G(d,p) EmpiricalDispersion=GD3BJ opt freq scf(xqc,tight)
 integral(grid=ultrafine)
 ----------------------------------------------------------------------

 ----------------------------------
 opt-freq conformers_unique/conf_aa
 ----------------------------------
 Symbolic Z-matrix:
 Charge =  0 Multiplicity = 1

 SCF Done:  E(RB3LYP) =  -2895.62706877     A.U. after   15 cycles
 SCF Done:  E(RB3LYP) =  -2895.62833090     A.U. after   14 cycles
 SCF Done:  E(RB3LYP) =  -2895.62755663     A.U. after   15 cycles
 SCF Done:  E(RB3LYP) =  -2895.62852159     A.U. after   12 cycles
 Optimization completed.
    -- Stationary point found.
 Normal termination of Gaussian 16 at Tue Sep 17 09:47:18 2024.

 ----------------------------------------------------------------------
 #P Geom=AllCheck Guess=TCheck SCRF=Check GenChk RB3LYP/6-31G(d,p) Freq
 ----------------------------------------------------------------------

 Structure from the checkpoint file:  "smiles_00112_conf_0.chk"
 ----------------------------------
 opt-freq conformers_unique/conf_aa
 ----------------------------------
 Charge =  0 Multiplicity = 1

 SCF Done:  E(RB3LYP) =  -2895.62852159     A.U. after    1 cycles

                      1                      2                      3
                      A                      A                      A
 Frequencies --    117.7916               128.2730               193.6858
 Red. masses --      5.0452                16.1300                 6.0411
 Frc consts  --      0.0412                 0.1564                 0.1335
 IR Inten    --      1.4529                 2.8188                 0.2074

                      4                      5                      6
                      A                      A                      A
 Frequencies --    258.8511               311.5391               399.7155
 Red. masses --      6.4548                13.7669                 4.4368
 Frc consts  --      0.2548                 0.7873                 0.4177
 IR Inten    --      0.6665                 3.6554                 1.1182

                      7                      8                      9
                      A                      A                      A
 Frequencies --    474.3638               498.5202               581.8323
 Red. masses --      3.8130                 8.8464                 8.2785
 Frc consts  --      0.5055                 1.2953                 1.6512
 IR Inten    --      7.0883                 2.0264                 0.4567

                     10                     11                     12
                      A                      A                      A
 Frequencies --    588.3938               672.5881               758.3405
 Red. masses --      4.5920                 6.6680                 2.6360
 Frc consts  --      0.9367                 1.7772                 0.8931
 IR Inten    --      4.1234                11.6129                11.3950

                     13                     14                     15
                      A                      A                      A
 Frequencies --    781.6708               790.5146               900.1466
 Red. masses --      1.4541                 6.3352                 1.4162
 Frc consts  --      0.5235                 2.3325                 0.6761
 IR Inten    --     34.0267                 3.9414                 0.0000

                     16                     17                     18
                      A                      A                      A
 Frequencies --    974.5692              1011.3019              1053.3465
 Red. masses --      1.3651                 1.3318                 6.5297
 Frc consts  --      0.7639                 0.8025                 4.2686
 IR Inten    --      1.6193                 0.0677                32.8516

                     19                     20                     21
                      A                      A                      A
 Frequencies --   1071.0004              1152.3710              1193.7284
 Red. masses --      2.2826                 1.6283                 1.0949
 Frc consts  --      1.5427                 1.2740                 0.9193
 IR Inten    --      6.4345                 3.1534                 0.5267

                     22                     23                     24
                      A                      A                      A
 Frequencies --   1235.2148              1293.2560              1341.3691
 Red. masses --      2.9075                 1.5240                 8.4206
 Frc consts  --      2.6137                 1.5018                 8.9267
 IR Inten    --      0.3398                 3.1126                 2.1335

                     25                     26                     27
                      A                      A                      A
 Frequencies --   1474.8563              1511.7248              1617.9232
 Red. masses --      2.1638                 2.5281                 5.6237
 Frc consts  --      2.7731                 3.4040                 8.6734
 IR Inten    --     24.2878                26.0137                 6.9558

                     28                     29                     30
                      A                      A                      A
 Frequencies --   1646.1288              2356.0551              3199.3581
 Red. masses --      6.0438                12.6782                 1.0869
 Frc consts  --      9.6491                41.4646                 6.5552
 IR Inten    --     11.6999                14.1487                 1.4996

                     31                     32                     33
                      A                      A                      A
 Frequencies --   3211.6881              3223.4288              3229.2206
 Red. masses --      1.0908                 1.0954                 1.0960
 Frc consts  --      6.6290                 6.7062                 6.7336
 IR Inten    --      5.3298                 4.7626                 3.0873

 - Thermochemistry -
 -------------------
 Temperature   298.150 Kelvin.  Pressure   1.00000 Atm.
 Atom     1 has atomic number  7 and mass  14.00307

 Molecular mass:   180.95271 amu.
 Principal axes and moments of inertia in atomic units:
                           1         2         3
     Eigenvalues --  1067.391911837.186172904.57808
           X            0.99847  -0.05523   0.00003
           Y            0.05523   0.99847   0.00003
           Z           -0.00003  -0.00003   1.00000
 This molecule is an asymmetric top.
 Rotational symmetry number  1.
 Warning -- assumption of classical behavior for rotation
           may cause significant error
 Rotational temperatures (Kelvin)      0.08115     0.04714     0.02982
 Rotational constants (GHZ):           1.69080     0.98234     0.62134
 Zero-point vibrational energy     234783.7 (Joules/Mol)
                                   56.11465 (Kcal/Mol)
 Warning -- explicit consideration of  10 degrees of freedom as
           vibrations may cause significant error
 Vibrational temperatures:    169.48   184.56   278.67   372.43   448.24
          (Kelvin)            575.10   682.50   717.26   837.13   846.57
                              967.70  1091.08  1124.65  1137.37  1295.11
                             1402.19  1455.04  1515.53  1540.93  1658.00
                             1717.51  1777.20  1860.71  1929.93  2121.99
                             2175.03  2327.83  2368.41  3389.84  4603.16
                             4620.90  4637.80  4646.13

 Zero-point correction=                           0.089424 (Hartree/Particle)
 Thermal correction to Energy=                    0.096863
 Thermal correction to Enthalpy=                  0.097807
 Thermal correction to Gibbs Free Energy=         0.056018
 Sum of electronic and zero-point Energies=          -2895.539097
 Sum of electronic and thermal Energies=             -2895.531658
 Sum of electronic and thermal Enthalpies=           -2895.530714
 Sum of electronic and thermal Free Energies=        -2895.572503

                     E (Thermal)             CV                S
                      KCal/Mol        Cal/Mol-Kelvin    Cal/Mol-Kelvin
 Total                   60.783             27.240             87.953
 Electronic               0.000              0.000              0.000
 Translational            0.889              2.981             41.486
 Rotational               0.889              2.981             30.122
 Vibrational             59.005             21.278             16.345
 Vibration     1          0.608              1.935              3.136
 Vibration     2          0.611              1.925              2.972
 Vibration     3          0.635              1.849              2.192
 Vibration     4          0.668              1.748              1.670
 Vibration     5          0.700              1.652              1.354
 Vibration     6          0.766              1.471              0.964
 Vibration     7          0.831              1.307              0.725
 Vibration     8          0.854              1.253              0.662
 Vibration     9          0.939              1.071              0.482
 Vibration    10          0.946              1.057              0.470

 Optimization completed.
    -- Stationary point found.
 Normal termination of Gaussian 16 at Tue Sep 17 09:47:49 2024.

 ----------------------------------------------------------------------
 #p M062X/def2tzvp geom=check guess=read scf(xqc,tight) integral(grid=u
 ltrafine) scrf(SMD, solvent=1,4-Dioxane) polar prop=efg volume
 ----------------------------------------------------------------------

 ---
 spe
 ---
 Structure from the checkpoint file:  "smiles_00112_conf_0.chk"
 Charge =  0 Multiplicity = 1

 SCF Done:  E(RM062X) =  -2898.07418122     A.U. after   12 cycles

  Exact polarizability:     153.264     -12.771     140.836      -0.002      -0.002      63.053
 Approx polarizability:     166.997     -15.006     160.609      -0.002      -0.002      78.767

 Normal termination of Gaussian 16 at Tue Sep 17 10:03:24 2024.
 Gaussian 16:  ES64L-G16RevC.02  7-Dec-2021

 ----------------------------------------------------------------------
 #p M062X/def2tzvp geom=check guess=read scf(xqc,tight) integral(grid=u
 ltrafine) scrf(SMD, solvent=1,4-Dioxane) nmr=giao
 ----------------------------------------------------------------------

 ---
 spe
 ---
 Structure from the checkpoint file:  "smiles_00112_conf_0.chk"
 Charge =  0 Multiplicity = 1

                         Standard orientation:
 ---------------------------------------------------------------------
 Center     Atomic      Atomic             Coordinates (Angstroms)
 Number     Number       Type             X           Y           Z
 ---------------------------------------------------------------------
      1          7           0       -0.611155    3.060109   -0.000066
      2          6           0       -0.020234    2.058706   -0.000073
      3          6           0        0.755657    0.856729   -0.000054
      4          6           0        2.158380    0.940576   -0.000098
      5          6           0        2.932247   -0.213767   -0.000078
      6          6           0        2.313700   -1.465315   -0.000010
      7          6           0        0.923287   -1.567293    0.000035
      8          6           0        0.149306   -0.411053    0.000014
      9         35           0       -1.742327   -0.556865    0.000063
     10          1           0        2.621601    1.920778   -0.000140
     11          1           0        4.014008   -0.137953   -0.000119
     12          1           0        2.913204   -2.369802    0.000010
     13          1           0        0.436645   -2.535019    0.000094
 ---------------------------------------------------------------------

 SCF Done:  E(RM062X) =  -2898.07418122     A.U. after    1 cycles

      1  N    Isotropic =   -91.8740   Anisotropy =   450.6213

      2  C    Isotropic =    51.9783   Anisotropy =   376.8808

      3  C    Isotropic =    47.7475   Anisotropy =   152.5780

      4  C    Isotropic =    25.2558   Anisotropy =   218.1523

      5  C    Isotropic =    35.5007   Anisotropy =   221.9138

      6  C    Isotropic =    28.3413   Anisotropy =   224.0655

      7  C    Isotropic =    29.5930   Anisotropy =   190.9432

      8  C    Isotropic =    19.3510   Anisotropy =   164.5186

      9  Br   Isotropic =  2039.6795   Anisotropy =  1213.1359

     10  H    Isotropic =    23.2050   Anisotropy =     7.9577

     11  H    Isotropic =    23.6613   Anisotropy =     5.5329

     12  H    Isotropic =    23.4551   Anisotropy =     6.1705

     13  H    Isotropic =    23.3989   Anisotropy =    10.8792

 The electronic state is 1-A.
 Alpha  occ. eigenvalues -- -485.39010 -63.37481 -57.19433 -57.19189 -57.19177
 Alpha  occ. eigenvalues --  -14.76666 -10.63054 -10.60702 -10.59307 -10.58043
 Alpha  occ. eigenvalues --  -10.57502 -10.57422 -10.56892  -9.04126  -6.86557
 Alpha  occ. eigenvalues --   -6.85653  -6.85612  -2.89935  -2.89612  -2.89569
 Alpha  occ. eigenvalues --   -2.88727  -2.88726  -1.03060  -0.99978  -0.91974
 Alpha  occ. eigenvalues --   -0.89086  -0.83875  -0.74718  -0.71112  -0.64455
 Alpha  occ. eigenvalues --   -0.57730  -0.56469  -0.53084  -0.50308  -0.49947
 Alpha  occ. eigenvalues --   -0.46455  -0.44408  -0.43834  -0.43057  -0.41015
 Alpha  occ. eigenvalues --   -0.39606  -0.36306  -0.33407  -0.31588
 Alpha virt. eigenvalues --   -0.03690  -0.00866   0.02344   0.06509   0.08245
 Alpha virt. eigenvalues --    0.09942   0.10370   0.10563   0.13084   0.13953
 Alpha virt. eigenvalues --    0.16212   0.17423   0.18581   0.20704   0.21920

 Mulliken charges:
               1
     1  N   -0.027110
     2  C   -0.201300
     3  C    0.226308
     4  C   -0.183564
     5  C   -0.148216
     6  C   -0.137708
     7  C   -0.143216
     8  C   -0.052360
     9  Br  -0.059892
    10  H    0.189005
    11  H    0.175724
    12  H    0.176804
    13  H    0.185525
 Sum of Mulliken charges =  -0.00000

 Dipole moment (field-independent basis, Debye):
    X=              4.4145    Y=             -4.2603    Z=             -0.0000  Tot=              6.1350
 Quadrupole moment (field-independent basis, Debye-Ang):
   XX=            -53.7117   YY=            -71.2813   ZZ=            -66.8082
   XY=              3.3025   XZ=             -0.0004   YZ=             -0.0001

 Normal termination of Gaussian 16 at Tue Sep 17 10:08:59 2024.
