 Gaussian 16, Revision C.02,

 ----------------------------------------------------------------------
 #p B3LYP/6-31G(d,p) EmpiricalDispersion=GD3BJ opt freq scf(xqc,tight)
 integral(grid=ultrafine)
 ----------------------------------------------------------------------

 ----------------------------------
 opt-freq conformers_unique/conf_ab
 ----------------------------------
 Symbolic Z-matrix:
 Charge =  0 Multiplicity = 1

 SCF Done:  E(RB3LYP) =  -3263.53405161     A.U. after   14 cycles
 SCF Done:  E(RB3LYP) =  -3263.53586911     A.U. after   12 cycles
 SCF Done:  E(RB3LYP) =  -3263.53594961     A.U. after   11 cycles
 SCF Done:  E(RB3LYP) =  -3263.53597840     A.U. after   11 cycles
 SCF Done:  E(RB3LYP) =  -3263.53606704     A.U. after   12 cycles
 SCF Done:  E(RB3LYP) =  -3263.52899994     A.U. after   15 cycles
 SCF Done:  E(RB3LYP) =  -3263.52554314     A.U. after   13 cycles
 SCF Done:  E(RB3LYP) =  -3263.52478443     A.U. after   13 cycles
 SCF Done:  E(RB3LYP) =  -3263.53607560     A.U. after    9 cycles
 SCF Done:  E(RB3LYP) =  -3263.52824154     A.U. after   15 cycles
 SCF Done:  E(RB3LYP) =  -3263.53669631     A.U. after   11 cycles
 SCF Done:  E(RB3LYP) =  -3263.53672106     A.U. after   12 cycles
 SCF Done:  E(RB3LYP) =  -3263.53673995     A.U. after   11 cycles
 SCF Done:  E(RB3LYP) =  -3263.53675213     A.U. after    9 cycles
 SCF Done:  E(RB3LYP) =  -3263.53675769     A.U. after   10 cycles
 SCF Done:  E(RB3LYP) =  -3263.53675916     A.U. after    9 cycles
 SCF Done:  E(RB3LYP) =  -3263.53675927     A.U. after    6 cycles
 SCF Done:  E(RB3LYP) =  -3263.53675931     A.U. after    7 cycles
 Optimization completed.
    -- Stationary point found.
 Normal termination of Gaussian 16 at Tue Sep 17 10:01:30 2024.

 ----------------------------------------------------------------------
 #P Geom=AllCheck Guess=TCheck SCRF=Check GenChk RB3LYP/6-31G(d,p) Freq
 ----------------------------------------------------------------------

 Structure from the checkpoint file:  "smiles_00036_conf_1.chk"
 ----------------------------------
 opt-freq conformers_unique/conf_ab
 ----------------------------------
 Charge =  0 Multiplicity = 1

 SCF Done:  E(RB3LYP) =  -3263.53675931     A.U. after    1 cycles

 The electronic state is 1-A.
 Alpha  occ. eigenvalues -- -482.89797 -61.85918 -56.37990 -56.37588 -56.37576
 Alpha  occ. eigenvalues --  -19.17656 -19.17071 -10.24747 -10.24461 -10.24026
 Alpha  occ. eigenvalues --  -10.23452 -10.23444 -10.20160 -10.19143 -10.19109
 Alpha  occ. eigenvalues --  -10.19001 -10.18771 -10.18718 -10.18667 -10.18016
 Alpha  occ. eigenvalues --  -10.17891  -8.56951  -6.52315  -6.51061  -6.51020
 Alpha  occ. eigenvalues --   -2.63886  -2.63531  -2.63501  -2.62500  -2.62499
 Alpha  occ. eigenvalues --   -1.06404  -1.05917  -0.86857  -0.84369  -0.78827
 Alpha  occ. eigenvalues --   -0.77706  -0.75023  -0.73352  -0.71052  -0.70061
 Alpha  occ. eigenvalues --   -0.68281  -0.62297  -0.59723  -0.58195  -0.57646
 Alpha  occ. eigenvalues --   -0.53691  -0.50805  -0.49715  -0.48298  -0.47430
 Alpha  occ. eigenvalues --   -0.47022  -0.46243  -0.45277  -0.44328  -0.44062
 Alpha  occ. eigenvalues --   -0.41965  -0.40746  -0.40445  -0.38900  -0.38200
 Alpha  occ. eigenvalues --   -0.37673  -0.36229  -0.35348  -0.34233  -0.34047
 Alpha  occ. eigenvalues --   -0.32918  -0.31698  -0.30178  -0.29277  -0.27112
 Alpha  occ. eigenvalues --   -0.25132  -0.23073  -0.21487  -0.21417
 Alpha virt. eigenvalues --   -0.01377   0.00099   0.01468   0.02159   0.02392
 Alpha virt. eigenvalues --    0.09193   0.10568   0.10863   0.11806   0.13326
 Alpha virt. eigenvalues --    0.14122   0.15217   0.15312   0.15553   0.16112

 Mulliken charges:
               1
     1  C   -0.078946
     2  O   -0.519454
     3  C    0.339581
     4  C   -0.138393
     5  C   -0.101811
     6  C   -0.131431
     7  C    0.348792
     8  O   -0.521145
     9  C   -0.076448
    10  C   -0.095533
    11  C    0.093841
    12  C   -0.076019
    13  C   -0.091408
    14  C   -0.081259
    15  C   -0.098253
    16  C    0.054092
    17  Br  -0.144475
    18  H    0.125175
    19  H    0.110396
    20  H    0.114429
    21  H    0.081882
    22  H    0.085794
    23  H    0.082014
    24  H    0.105279
    25  H    0.116632
    26  H    0.125300
    27  H    0.092702
    28  H    0.086276
    29  H    0.088971
    30  H    0.103417
 Sum of Mulliken charges =  -0.00000

 Dipole moment (field-independent basis, Debye):
    X=             -1.6342    Y=              0.3220    Z=             -0.3989  Tot=              1.7127
 Quadrupole moment (field-independent basis, Debye-Ang):
   XX=            -98.1779   YY=            -95.1647   ZZ=           -111.1791
   XY=             -0.8610   XZ=             -3.9124   YZ=              2.4412

  Exact polarizability:     198.820      13.867     187.232     -10.492      -8.914     116.952
 Approx polarizability:     303.468      21.429     293.502     -13.810     -25.057     189.335

                      1                      2                      3
                      A                      A                      A
 Frequencies --     35.9440                57.5697                62.5875
 Red. masses --      5.9532                 3.0846                 4.9722
 Frc consts  --      0.0045                 0.0060                 0.0115
 IR Inten    --      0.3574                 5.9176                 0.2190

                      4                      5                      6
                      A                      A                      A
 Frequencies --     69.8446                99.4299               135.4610
 Red. masses --      4.4528                 3.8634                 5.0370
 Frc consts  --      0.0128                 0.0225                 0.0545
 IR Inten    --      0.8175                 1.4787                 0.8843

                      7                      8                      9
                      A                      A                      A
 Frequencies --    151.0199               170.2523               194.2140
 Red. masses --      4.9670                 3.6380                 1.5779
 Frc consts  --      0.0667                 0.0621                 0.0351
 IR Inten    --      2.7753                 0.9554                 0.0368

                     10                     11                     12
                      A                      A                      A
 Frequencies --    232.8118               262.3193               264.9887
 Red. masses --      1.4494                 3.0567                 5.0262
 Frc consts  --      0.0463                 0.1239                 0.2079
 IR Inten    --      0.2672                 0.3274                 0.2713

                     13                     14                     15
                      A                      A                      A
 Frequencies --    281.6366               290.3212               333.3504
 Red. masses --      2.9803                 2.3938                 3.6722
 Frc consts  --      0.1393                 0.1189                 0.2404
 IR Inten    --      0.3973                 0.2329                 3.6500

                     16                     17                     18
                      A                      A                      A
 Frequencies --    365.5434               375.5487               422.9910
 Red. masses --      5.9756                 5.5125                 4.8561
 Frc consts  --      0.4704                 0.4581                 0.5119
 IR Inten    --      3.7793                 1.2945                 0.7913

                     19                     20                     21
                      A                      A                      A
 Frequencies --    459.0750               503.3080               548.5026
 Red. masses --      3.4525                 5.1108                 5.3489
 Frc consts  --      0.4287                 0.7628                 0.9481
 IR Inten    --      3.7273                 0.4288                 2.6559

                     22                     23                     24
                      A                      A                      A
 Frequencies --    571.4425               600.5079               620.8815
 Red. masses --      4.2839                 5.6872                 4.2829
 Frc consts  --      0.8242                 1.2083                 0.9728
 IR Inten    --      2.0434                11.8071                 3.1337

                     25                     26                     27
                      A                      A                      A
 Frequencies --    642.9200               670.6684               717.6839
 Red. masses --      4.2124                 6.3549                 5.7451
 Frc consts  --      1.0259                 1.6841                 1.7435
 IR Inten    --      5.7682                 7.8123                 9.3804

                     28                     29                     30
                      A                      A                      A
 Frequencies --    734.0217               756.3379               770.4332
 Red. masses --      1.9815                 2.3164                 1.4072
 Frc consts  --      0.6290                 0.7807                 0.4921
 IR Inten    --      9.9523                18.3356                21.6989

                     31                     32                     33
                      A                      A                      A
 Frequencies --    787.0847               789.8502               845.3312
 Red. masses --      4.2668                 3.7906                 1.4558
 Frc consts  --      1.5574                 1.3933                 0.6129
 IR Inten    --     12.4814                30.3355                 0.0323

                     34                     35                     36
                      A                      A                      A
 Frequencies --    885.9255               939.8073               952.9016
 Red. masses --      1.4213                 4.8846                 1.2475
 Frc consts  --      0.6572                 2.5419                 0.6674
 IR Inten    --      0.1997                 1.5223                 0.1859

                     37                     38                     39
                      A                      A                      A
 Frequencies --    959.6308               992.8492              1022.2356
 Red. masses --      1.4091                 1.2947                 7.4852
 Frc consts  --      0.7645                 0.7519                 4.6085
 IR Inten    --      0.8848                 0.0360                16.7624

                     40                     41                     42
                      A                      A                      A
 Frequencies --   1053.5088              1084.7462              1086.7118
 Red. masses --      6.0224                 2.3261                 5.6684
 Frc consts  --      3.9382                 1.6127                 3.9440
 IR Inten    --     26.8513                 1.8031                24.2378

                     43                     44                     45
                      A                      A                      A
 Frequencies --   1130.6823              1146.5115              1160.6900
 Red. masses --      1.6984                 1.7499                 2.7304
 Frc consts  --      1.2793                 1.3553                 2.1672
 IR Inten    --      2.5768                27.7278               234.8353

                     46                     47                     48
                      A                      A                      A
 Frequencies --   1177.4581              1179.7251              1189.3981
 Red. masses --      1.2767                 1.2733                 1.0887
 Frc consts  --      1.0429                 1.0441                 0.9075
 IR Inten    --      1.4505                 0.8964                 0.3909

                     49                     50                     51
                      A                      A                      A
 Frequencies --   1205.0213              1217.0062              1219.6330
 Red. masses --      1.3996                 1.3587                 1.3572
 Frc consts  --      1.1974                 1.1857                 1.1895
 IR Inten    --     12.3682                 1.5523                12.5664

                     52                     53                     54
                      A                      A                      A
 Frequencies --   1275.8313              1290.9841              1310.6430
 Red. masses --      1.8520                 2.2711                 2.2474
 Frc consts  --      1.7762                 2.2301                 2.2746
 IR Inten    --     43.1312               221.0967                 9.0677

                     55                     56                     57
                      A                      A                      A
 Frequencies --   1334.9988              1337.2735              1361.7812
 Red. masses --      6.1602                 4.9264                 7.5905
 Frc consts  --      6.4686                 5.1907                 8.2935
 IR Inten    --      0.9175                 6.1892                21.4948

                     58                     59                     60
                      A                      A                      A
 Frequencies --   1470.1498              1477.8848              1489.1926
 Red. masses --      1.8468                 1.4485                 1.3180
 Frc consts  --      2.3518                 1.8640                 1.7221
 IR Inten    --     74.9737                43.4338                 8.0534

                     61                     62                     63
                      A                      A                      A
 Frequencies --   1500.8554              1504.8742              1506.5608
 Red. masses --      1.0982                 1.0724                 1.8464
 Frc consts  --      1.4574                 1.4308                 2.4692
 IR Inten    --      7.6543                 5.0219                27.7483

                     64                     65                     66
                      A                      A                      A
 Frequencies --   1516.9598              1519.6661              1524.1931
 Red. masses --      1.1443                 1.1797                 1.7709
 Frc consts  --      1.5515                 1.6052                 2.4240
 IR Inten    --     73.6826                22.2441                47.6601

                     67                     68                     69
                      A                      A                      A
 Frequencies --   1542.9976              1619.2303              1646.7663
 Red. masses --      3.0824                 5.6266                 6.4779
 Frc consts  --      4.3238                 8.6919                10.3502
 IR Inten    --      2.8852                 6.9964                41.8169

                     70                     71                     72
                      A                      A                      A
 Frequencies --   1648.5553              1653.2911              3017.4363
 Red. masses --      6.7569                 6.7375                 1.0347
 Frc consts  --     10.8195                10.8504                 5.5506
 IR Inten    --    112.1125                25.3926                65.5511

                     73                     74                     75
                      A                      A                      A
 Frequencies --   3021.7192              3079.9863              3089.3615
 Red. masses --      1.0352                 1.1060                 1.1046
 Frc consts  --      5.5691                 6.1817                 6.2115
 IR Inten    --     60.7944                36.5905                33.5072

                     76                     77                     78
                      A                      A                      A
 Frequencies --   3151.6225              3152.5268              3186.6347
 Red. masses --      1.1001                 1.1010                 1.0856
 Frc consts  --      6.4382                 6.4467                 6.4953
 IR Inten    --     21.1899                19.6614                 1.2375

                     79                     80                     81
                      A                      A                      A
 Frequencies --   3190.0167              3199.9576              3212.0642
 Red. masses --      1.0887                 1.0906                 1.0950
 Frc consts  --      6.5273                 6.5799                 6.6564
 IR Inten    --     12.0215                16.8795                16.1118

                     82                     83                     84
                      A                      A                      A
 Frequencies --   3221.0970              3230.1578              3236.1034
 Red. masses --      1.0954                 1.0911                 1.0926
 Frc consts  --      6.6964                 6.7077                 6.7414
 IR Inten    --      8.4308                11.3582                 8.7107

 - Thermochemistry -
 -------------------
 Temperature   298.150 Kelvin.  Pressure   1.00000 Atm.
 Atom     1 has atomic number  6 and mass  12.00000

 Molecular mass:   292.00989 amu.
 Principal axes and moments of inertia in atomic units:
                           1         2         3
     Eigenvalues --  4083.552075030.606506744.15754
           X            0.99711   0.06117  -0.04499
           Y           -0.05847   0.99654   0.05904
           Z            0.04844  -0.05624   0.99724
 This molecule is an asymmetric top.
 Rotational symmetry number  1.
 Warning -- assumption of classical behavior for rotation
           may cause significant error
 Rotational temperatures (Kelvin)      0.02121     0.01722     0.01284
 Rotational constants (GHZ):           0.44195     0.35875     0.26760
 Zero-point vibrational energy     621757.3 (Joules/Mol)
                                  148.60355 (Kcal/Mol)
 Warning -- explicit consideration of  23 degrees of freedom as
           vibrations may cause significant error
 Vibrational temperatures:     51.72    82.83    90.05   100.49   143.06
          (Kelvin)            194.90   217.28   244.96   279.43   334.96
                              377.42   381.26   405.21   417.71   479.62
                              525.94   540.33   608.59   660.51   724.15
                              789.17   822.18   864.00   893.31   925.02
                              964.94  1032.59  1056.09  1088.20  1108.48
                             1132.44  1136.42  1216.24  1274.65  1352.17
                             1371.01  1380.69  1428.49  1470.77  1515.76
                             1560.71  1563.54  1626.80  1649.57  1669.97
                             1694.10  1697.36  1711.28  1733.76  1751.00
                             1754.78  1835.64  1857.44  1885.72  1920.77
                             1924.04  1959.30  2115.22  2126.35  2142.62
                             2159.40  2165.18  2167.61  2182.57  2186.46
                             2192.97  2220.03  2329.71  2369.33  2371.90
                             2378.72  4341.42  4347.58  4431.41  4444.90
                             4534.48  4535.78  4584.86  4589.72  4604.03
                             4621.44  4634.44  4647.48  4656.03

 Zero-point correction=                           0.236815 (Hartree/Particle)
 Thermal correction to Energy=                    0.252489
 Thermal correction to Enthalpy=                  0.253433
 Thermal correction to Gibbs Free Energy=         0.192596
 Sum of electronic and zero-point Energies=          -3263.299944
 Sum of electronic and thermal Energies=             -3263.284270
 Sum of electronic and thermal Enthalpies=           -3263.283326
 Sum of electronic and thermal Free Energies=        -3263.344163

                     E (Thermal)             CV                S
                      KCal/Mol        Cal/Mol-Kelvin    Cal/Mol-Kelvin
 Total                  158.439             58.886            128.042
 Electronic               0.000              0.000              0.000
 Translational            0.889              2.981             42.912
 Rotational               0.889              2.981             33.293
 Vibrational            156.662             52.924             51.837
 Vibration     1          0.594              1.982              5.471
 Vibration     2          0.596              1.974              4.539
 Vibration     3          0.597              1.972              4.374
 Vibration     4          0.598              1.968              4.158
 Vibration     5          0.604              1.950              3.465
 Vibration     6          0.613              1.918              2.867
 Vibration     7          0.618              1.902              2.659
 Vibration     8          0.625              1.879              2.433
 Vibration     9          0.635              1.848              2.187
 Vibration    10          0.654              1.791              1.857
 Vibration    11          0.670              1.742              1.646
 Vibration    12          0.671              1.737              1.629
 Vibration    13          0.681              1.708              1.524
 Vibration    14          0.686              1.692              1.472
 Vibration    15          0.715              1.609              1.244
 Vibration    16          0.739              1.543              1.098
 Vibration    17          0.746              1.522              1.057
 Vibration    18          0.785              1.420              0.882
 Vibration    19          0.817              1.341              0.769
 Vibration    20          0.859              1.243              0.650
 Vibration    21          0.904              1.143              0.547
 Vibration    22          0.928              1.093              0.501
 Vibration    23          0.959              1.031              0.449

                           ! Non-Optimized Parameters !
 Normal termination of Gaussian 16 at Tue Sep 17 10:05:24 2024.
 Gaussian 16:  ES64L-G16RevC.02  7-Dec-2021

 ----------------------------------------------------------------------
 #p M062X/def2tzvp geom=check guess=read scf(xqc,tight) integral(grid=u
 ltrafine) scrf(SMD, solvent=1,4-Dioxane) polar prop=efg volume
 ----------------------------------------------------------------------

 ---
 spe
 ---
 Structure from the checkpoint file:  "smiles_00036_conf_1.chk"
 Charge =  0 Multiplicity = 1

                         Standard orientation:
 ---------------------------------------------------------------------
 Center     Atomic      Atomic             Coordinates (Angstroms)
 Number     Number       Type             X           Y           Z
 ---------------------------------------------------------------------
      1          6           0       -2.706388    2.883150    1.128109
      2          8           0       -1.669257    2.142891    0.507526
      3          6           0       -1.930733    0.857973    0.130036
      4          6           0       -3.177518    0.240372    0.289308
      5          6           0       -3.332235   -1.085534   -0.108297
      6          6           0       -2.280267   -1.802887   -0.670326
      7          6           0       -1.043138   -1.171073   -0.836689
      8          8           0        0.039801   -1.771514   -1.405917
      9          6           0        0.086170   -3.189268   -1.412270
     10          6           0       -0.845198    0.157142   -0.424144
     11          6           0        0.490541    0.793389   -0.552537
     12          6           0        0.674310    1.888722   -1.407992
     13          6           0        1.915735    2.501120   -1.553730
     14          6           0        3.013316    2.024423   -0.837344
     15          6           0        2.861049    0.941952    0.026723
     16          6           0        1.609879    0.345848    0.162411
     17         35           0        1.450099   -1.112201    1.392696
     18          1           0       -2.278669    3.858886    1.361172
     19          1           0       -3.566219    3.015264    0.459251
     20          1           0       -3.044292    2.404314    2.055473
     21          1           0       -4.012278    0.773843    0.723956
     22          1           0       -4.296619   -1.567718    0.019311
     23          1           0       -2.425175   -2.829126   -0.982123
     24          1           0       -0.641305   -3.619620   -2.111693
     25          1           0       -0.089291   -3.591472   -0.408013
     26          1           0        1.092542   -3.454154   -1.738407
     27          1           0       -0.183359    2.254104   -1.962291
     28          1           0        2.026401    3.345663   -2.226439
     29          1           0        3.987249    2.491648   -0.944772
     30          1           0        3.700062    0.562396    0.597779
 ---------------------------------------------------------------------

 SCF Done:  E(RM062X) =  -3265.92121767     A.U. after   12 cycles
