 Gaussian 16, Revision C.02,

 ----------------------------------------------------------------------
 #p B3LYP/6-31G(d,p) EmpiricalDispersion=GD3BJ opt freq scf(xqc,tight)
 integral(grid=ultrafine)
 ----------------------------------------------------------------------

 ----------------------------------
 opt-freq conformers_unique/conf_ac
 ----------------------------------
 Symbolic Z-matrix:
 Charge =  0 Multiplicity = 1

 SCF Done:  E(RB3LYP) =  -1203.80809982     A.U. after   15 cycles
 SCF Done:  E(RB3LYP) =  -1203.81050795     A.U. after   12 cycles
 SCF Done:  E(RB3LYP) =  -1203.81058469     A.U. after    9 cycles
 SCF Done:  E(RB3LYP) =  -1203.81059496     A.U. after    9 cycles
 SCF Done:  E(RB3LYP) =  -1203.81059520     A.U. after    7 cycles
 SCF Done:  E(RB3LYP) =  -1203.81059541     A.U. after    8 cycles
 SCF Done:  E(RB3LYP) =  -1203.81059609     A.U. after    8 cycles
 SCF Done:  E(RB3LYP) =  -1203.81060015     A.U. after   11 cycles
 SCF Done:  E(RB3LYP) =  -1203.81060168     A.U. after   12 cycles
 SCF Done:  E(RB3LYP) =  -1203.81055622     A.U. after   12 cycles
 SCF Done:  E(RB3LYP) =  -1203.81283718     A.U. after   14 cycles
 SCF Done:  E(RB3LYP) =  -1203.81371526     A.U. after   15 cycles
 SCF Done:  E(RB3LYP) =  -1203.81427435     A.U. after   12 cycles
 SCF Done:  E(RB3LYP) =  -1203.81419401     A.U. after   12 cycles
 SCF Done:  E(RB3LYP) =  -1203.81430219     A.U. after   12 cycles
 SCF Done:  E(RB3LYP) =  -1203.81430329     A.U. after    8 cycles
 SCF Done:  E(RB3LYP) =  -1203.81430336     A.U. after    7 cycles
 Optimization completed.
    -- Stationary point found.
 Normal termination of Gaussian 16 at Tue Sep 17 09:58:02 2024.

 ----------------------------------------------------------------------
 #P Geom=AllCheck Guess=TCheck SCRF=Check GenChk RB3LYP/6-31G(d,p) Freq
 ----------------------------------------------------------------------

 Structure from the checkpoint file:  "smiles_00037_conf_2.chk"
 ----------------------------------
 opt-freq conformers_unique/conf_ac
 ----------------------------------
 Charge =  0 Multiplicity = 1

 SCF Done:  E(RB3LYP) =  -1203.81430336     A.U. after    1 cycles

                      1                      2                      3
                      A                      A                      A
 Frequencies --     35.7291                54.1858                66.6312
 Red. masses --      8.7033                 4.1498                 8.9744
 Frc consts  --      0.0065                 0.0072                 0.0235
 IR Inten    --      0.7210                 0.6868                 1.0788

                      4                      5                      6
                      A                      A                      A
 Frequencies --    134.2212               138.8901               164.0801
 Red. masses --      8.7463                 5.1492                 9.8988
 Frc consts  --      0.0928                 0.0585                 0.1570
 IR Inten    --      2.6416                 0.1470                 3.1963

                      7                      8                      9
                      A                      A                      A
 Frequencies --    197.0971               230.7739               250.6541
 Red. masses --      6.9733                11.9587                 7.0063
 Frc consts  --      0.1596                 0.3752                 0.2594
 IR Inten    --      0.4902                 0.9035                 0.3663

                     10                     11                     12
                      A                      A                      A
 Frequencies --    283.0591               349.4382               365.6129
 Red. masses --      9.1601                 6.2103                10.8484
 Frc consts  --      0.4324                 0.4468                 0.8544
 IR Inten    --      1.1107                 0.0984                14.4612

                     13                     14                     15
                      A                      A                      A
 Frequencies --    403.6059               420.1017               427.2329
 Red. masses --      4.1417                 3.0783                 3.9828
 Frc consts  --      0.3975                 0.3201                 0.4283
 IR Inten    --      0.2778                 0.5534                 0.3729

                     16                     17                     18
                      A                      A                      A
 Frequencies --    464.1017               470.2864               520.2926
 Red. masses --      5.0317                 9.4740                 2.8778
 Frc consts  --      0.6385                 1.2346                 0.4590
 IR Inten    --      0.8759                34.4719                11.4517

                     19                     20                     21
                      A                      A                      A
 Frequencies --    541.5726               587.9325               646.0129
 Red. masses --      7.4363                10.5177                 7.0504
 Frc consts  --      1.2850                 2.1420                 1.7336
 IR Inten    --     10.0791                 4.1436                 0.5342

                     22                     23                     24
                      A                      A                      A
 Frequencies --    675.8332               679.3345               703.7066
 Red. masses --      5.7168                 7.7142                 4.8326
 Frc consts  --      1.5384                 2.0975                 1.4100
 IR Inten    --      2.6935                 2.5354                 4.3102

                     25                     26                     27
                      A                      A                      A
 Frequencies --    720.8773               727.9204               743.9162
 Red. masses --      2.9885                 5.6613                 6.7670
 Frc consts  --      0.9150                 1.7674                 2.2064
 IR Inten    --     48.7179                 4.4996                10.8979

                     28                     29                     30
                      A                      A                      A
 Frequencies --    782.2880               798.3503               825.3939
 Red. masses --      6.7194                 1.6454                 1.2493
 Frc consts  --      2.4228                 0.6179                 0.5015
 IR Inten    --      1.8135                16.9789                 0.2098

                     31                     32                     33
                      A                      A                      A
 Frequencies --    835.8944               868.3632               898.4653
 Red. masses --      1.6140                 6.5073                 7.3660
 Frc consts  --      0.6645                 2.8910                 3.5033
 IR Inten    --     40.9783                39.2944                20.7999

                     34                     35                     36
                      A                      A                      A
 Frequencies --    910.1292               952.5639               961.5192
 Red. masses --      1.3314                 1.2901                 1.3361
 Frc consts  --      0.6498                 0.6897                 0.7278
 IR Inten    --      0.1023                 2.7848                 0.4503

                     37                     38                     39
                      A                      A                      A
 Frequencies --    974.8222              1009.5826              1034.8115
 Red. masses --      1.3818                 1.3026                 3.5754
 Frc consts  --      0.7737                 0.7823                 2.2558
 IR Inten    --      0.8542                 0.0180                18.4641

                     40                     41                     42
                      A                      A                      A
 Frequencies --   1038.8272              1096.0655              1113.3915
 Red. masses --      2.1917                 3.6499                 3.0869
 Frc consts  --      1.3935                 2.5835                 2.2546
 IR Inten    --      9.4415                69.7902                15.4312

                     43                     44                     45
                      A                      A                      A
 Frequencies --   1115.6591              1138.9499              1150.9048
 Red. masses --      3.2462                 2.9519                 1.3970
 Frc consts  --      2.3806                 2.2561                 1.0902
 IR Inten    --     73.0873                 0.5786                28.1469

                     46                     47                     48
                      A                      A                      A
 Frequencies --   1189.4511              1199.2641              1212.8386
 Red. masses --      1.1721                 2.2198                 1.1499
 Frc consts  --      0.9770                 1.8810                 0.9966
 IR Inten    --      8.1824                 2.2821                 0.3174

                     49                     50                     51
                      A                      A                      A
 Frequencies --   1257.4872              1312.9214              1333.9910
 Red. masses --      4.4939                 1.5727                 1.4766
 Frc consts  --      4.1868                 1.5972                 1.5481
 IR Inten    --     63.9064                 1.0506                 0.5319

                     52                     53                     54
                      A                      A                      A
 Frequencies --   1347.2750              1397.1842              1410.5855
 Red. masses --      5.3805                 7.3878                 6.4200
 Frc consts  --      5.7542                 8.4971                 7.5263
 IR Inten    --      1.0142               421.2370               206.1425

                     55                     56                     57
                      A                      A                      A
 Frequencies --   1454.4910              1509.4081              1509.4191
 Red. masses --      3.0320                 2.6589                 2.5004
 Frc consts  --      3.7792                 3.5692                 3.3565
 IR Inten    --      5.6615                 1.1911                 6.6704

                     58                     59                     60
                      A                      A                      A
 Frequencies --   1540.9632              1633.1292              1654.3679
 Red. masses --      2.4647                 7.3768                 5.8013
 Frc consts  --      3.4483                11.5920                 9.3549
 IR Inten    --    229.4726                 0.2824                 0.8557

                     61                     62                     63
                      A                      A                      A
 Frequencies --   1664.6177              1667.0015              1808.0174
 Red. masses --      6.9964                 7.3214                12.8516
 Frc consts  --     11.4223                11.9871                24.7521
 IR Inten    --     13.7639                 1.4265               483.5474

                     64                     65                     66
                      A                      A                      A
 Frequencies --   1856.7986              3194.7394              3207.7213
 Red. masses --     12.9882                 1.0870                 1.0910
 Frc consts  --     26.3832                 6.5366                 6.6142
 IR Inten    --     31.5387                 1.8595                 8.4539

                     67                     68                     69
                      A                      A                      A
 Frequencies --   3219.8071              3221.4752              3221.7752
 Red. masses --      1.0939                 1.0909                 1.0911
 Frc consts  --      6.6819                 6.6702                 6.6726
 IR Inten    --      3.5845                 3.4170                 1.8372

                     70                     71                     72
                      A                      A                      A
 Frequencies --   3222.9791              3251.8299              3251.9416
 Red. masses --      1.0966                 1.0931                 1.0939
 Frc consts  --      6.7113                 6.8100                 6.8159
 IR Inten    --     10.8952                 0.4465                 0.0280

 - Thermochemistry -
 -------------------
 Temperature   298.150 Kelvin.  Pressure   1.00000 Atm.
 Atom     1 has atomic number  8 and mass  15.99491

 Molecular mass:   257.02436 amu.
 Principal axes and moments of inertia in atomic units:
                           1         2         3
     Eigenvalues --  1360.86058********************
           X            1.00000   0.00000   0.00000
           Y           -0.00000   0.99987   0.01635
           Z           -0.00000  -0.01635   0.99987
 This molecule is an asymmetric top.
 Rotational symmetry number  1.
 Warning -- assumption of classical behavior for rotation
           may cause significant error
 Rotational temperatures (Kelvin)      0.06365     0.00840     0.00755
 Rotational constants (GHZ):           1.32618     0.17513     0.15728
 Zero-point vibrational energy     492027.4 (Joules/Mol)
                                  117.59738 (Kcal/Mol)
 Warning -- explicit consideration of  20 degrees of freedom as
           vibrations may cause significant error
 Vibrational temperatures:     51.41    77.96    95.87   193.11   199.83
          (Kelvin)            236.07   283.58   332.03   360.64   407.26
                              502.76   526.04   580.70   604.43   614.69
                              667.74   676.64   748.59   779.20   845.90
                              929.47   972.37   977.41  1012.48  1037.18
                             1047.32  1070.33  1125.54  1148.65  1187.56
                             1202.67  1249.38  1292.69  1309.47  1370.53
                             1383.41  1402.55  1452.56  1488.86  1494.64
                             1576.99  1601.92  1605.18  1638.69  1655.90
                             1711.35  1725.47  1745.00  1809.24  1889.00
                             1919.32  1938.43  2010.24  2029.52  2092.69
                             2171.70  2171.72  2217.10  2349.71  2380.27
                             2395.01  2398.44  2601.33  2671.52  4596.52
                             4615.20  4632.58  4634.98  4635.42  4637.15
                             4678.66  4678.82

 Zero-point correction=                           0.187403 (Hartree/Particle)
 Thermal correction to Energy=                    0.201089
 Thermal correction to Enthalpy=                  0.202033
 Thermal correction to Gibbs Free Energy=         0.145707
 Sum of electronic and zero-point Energies=          -1203.626900
 Sum of electronic and thermal Energies=             -1203.613214
 Sum of electronic and thermal Enthalpies=           -1203.612270
 Sum of electronic and thermal Free Energies=        -1203.668597

                     E (Thermal)             CV                S
                      KCal/Mol        Cal/Mol-Kelvin    Cal/Mol-Kelvin
 Total                  126.185             53.607            118.550
 Electronic               0.000              0.000              0.000
 Translational            0.889              2.981             42.532
 Rotational               0.889              2.981             33.442
 Vibrational            124.408             47.646             42.576
 Vibration     1          0.594              1.982              5.483
 Vibration     2          0.596              1.976              4.658
 Vibration     3          0.598              1.970              4.250
 Vibration     4          0.613              1.919              2.885
 Vibration     5          0.615              1.914              2.819
 Vibration     6          0.623              1.887              2.502
 Vibration     7          0.636              1.844              2.160
 Vibration     8          0.652              1.794              1.873
 Vibration     9          0.663              1.762              1.726
 Vibration    10          0.682              1.705              1.515
 Vibration    11          0.727              1.576              1.169
 Vibration    12          0.739              1.543              1.098
 Vibration    13          0.769              1.462              0.949
 Vibration    14          0.783              1.427              0.892
 Vibration    15          0.789              1.411              0.868
 Vibration    16          0.822              1.330              0.754
 Vibration    17          0.827              1.316              0.737
 Vibration    18          0.875              1.205              0.609
 Vibration    19          0.897              1.158              0.562
 Vibration    20          0.945              1.058              0.471

 Optimization completed.
    -- Stationary point found.
 Normal termination of Gaussian 16 at Tue Sep 17 10:00:45 2024.

 ----------------------------------------------------------------------
 #p M062X/def2tzvp geom=check guess=read scf(xqc,tight) integral(grid=u
 ltrafine) scrf(SMD, solvent=1,4-Dioxane) polar prop=efg volume
 ----------------------------------------------------------------------

 ---
 spe
 ---
 Structure from the checkpoint file:  "smiles_00037_conf_2.chk"
 Charge =  0 Multiplicity = 1

 SCF Done:  E(RM062X) =  -1203.74205925     A.U. after   12 cycles

 The electronic state is 1-A.
 Alpha  occ. eigenvalues -- -102.64692 -19.63886 -19.63886 -14.81676 -10.68252
 Alpha  occ. eigenvalues --  -10.68250 -10.60937 -10.60313 -10.57803 -10.57726
 Alpha  occ. eigenvalues --  -10.57392 -10.57392 -10.57117 -10.57043 -10.55902
 Alpha  occ. eigenvalues --  -10.55899 -10.55802 -10.55801  -9.80937  -7.53134
 Alpha  occ. eigenvalues --   -7.52625  -7.52612  -1.20801  -1.19063  -1.08760
 Alpha  occ. eigenvalues --   -1.00309  -0.98945  -0.94247  -0.89553  -0.87689
 Alpha  occ. eigenvalues --   -0.86201  -0.83017  -0.77066  -0.75143  -0.72381
 Alpha  occ. eigenvalues --   -0.69083  -0.69065  -0.65888  -0.61355  -0.60150
 Alpha  occ. eigenvalues --   -0.58132  -0.57385  -0.56033  -0.54260  -0.53750
 Alpha  occ. eigenvalues --   -0.53249  -0.52746  -0.52482  -0.50913  -0.50208
 Alpha  occ. eigenvalues --   -0.48783  -0.47709  -0.45828  -0.45228  -0.45059
 Alpha  occ. eigenvalues --   -0.43670  -0.43465  -0.41416  -0.37993  -0.37755
 Alpha  occ. eigenvalues --   -0.37029  -0.35554  -0.33794  -0.33671  -0.32314
 Alpha  occ. eigenvalues --   -0.28977
 Alpha virt. eigenvalues --   -0.06012  -0.02568   0.00765   0.01224   0.05655
 Alpha virt. eigenvalues --    0.06370   0.08199   0.09355   0.10558   0.10694
 Alpha virt. eigenvalues --    0.11424   0.11485   0.13062   0.13096   0.13559

 Mulliken charges:
               1
     1  O   -0.323332
     2  C    0.240895
     3  C    0.061582
     4  C   -0.220839
     5  C   -0.127109
     6  C   -0.127109
     7  C   -0.220842
     8  C    0.061581
     9  C    0.240910
    10  O   -0.323331
    11  N   -0.132806
    12  C    0.211101
    13  C   -0.205009
    14  C   -0.176939
    15  C    0.072215
    16  Cl  -0.098655
    17  C   -0.176933
    18  C   -0.205014
    19  H    0.182136
    20  H    0.175126
    21  H    0.175126
    22  H    0.182136
    23  H    0.190706
    24  H    0.176849
    25  H    0.176850
    26  H    0.190704
 Sum of Mulliken charges =  -0.00000

 Dipole moment (field-independent basis, Debye):
    X=              5.5090    Y=              0.0000    Z=              0.0002  Tot=              5.5090
 Quadrupole moment (field-independent basis, Debye-Ang):
   XX=            -89.9185   YY=           -112.7932   ZZ=           -110.7008
   XY=              0.0003   XZ=              0.0019   YZ=              5.6644

  Exact polarizability:     329.252       0.002     209.298       0.003       5.898     113.476
 Approx polarizability:     303.754       0.002     266.169       0.003       6.598     145.979

 Normal termination of Gaussian 16 at Tue Sep 17 11:47:48 2024.
 Gaussian 16:  ES64L-G16RevC.02  7-Dec-2021

 ----------------------------------------------------------------------
 #p M062X/def2tzvp geom=check guess=read scf(xqc,tight) integral(grid=u
 ltrafine) scrf(SMD, solvent=1,4-Dioxane) nmr=giao
 ----------------------------------------------------------------------

 ---
 spe
 ---
 Structure from the checkpoint file:  "smiles_00037_conf_2.chk"
 Charge =  0 Multiplicity = 1

                         Standard orientation:
 ---------------------------------------------------------------------
 Center     Atomic      Atomic             Coordinates (Angstroms)
 Number     Number       Type             X           Y           Z
 ---------------------------------------------------------------------
      1          8           0        0.831558    2.288315   -0.340042
      2          6           0        1.239123    1.158677   -0.173927
      3          6           0        2.648898    0.688958   -0.104458
      4          6           0        3.829355    1.407436   -0.214558
      5          6           0        5.028341    0.692250   -0.105706
      6          6           0        5.028330   -0.692240    0.106093
      7          6           0        3.829331   -1.407442    0.214710
      8          6           0        2.648887   -0.688981    0.104377
      9          6           0        1.239104   -1.158702    0.173679
     10          8           0        0.831530   -2.288336    0.339809
     11          7           0        0.437400   -0.000017   -0.000205
     12          6           0       -0.984415    0.000002   -0.000119
     13          6           0       -1.683133    1.061982    0.583737
     14          6           0       -3.074934    1.066081    0.577219
     15          6           0       -3.760848    0.000007    0.000053
     16         17           0       -5.517240    0.000015    0.000166
     17          6           0       -3.075014   -1.066065   -0.577208
     18          6           0       -1.683214   -1.061966   -0.583904
     19          1           0        3.814378    2.479456   -0.377768
     20          1           0        5.974625    1.217505   -0.185820
     21          1           0        5.974605   -1.217481    0.186402
     22          1           0        3.814335   -2.479463    0.377916
     23          1           0       -1.142570    1.887825    1.025231
     24          1           0       -3.622408    1.888230    1.022587
     25          1           0       -3.622546   -1.888209   -1.022515
     26          1           0       -1.142706   -1.887798   -1.025484
 ---------------------------------------------------------------------

 SCF Done:  E(RM062X) =  -1203.74205925     A.U. after    1 cycles
