 Gaussian 16, Revision C.02,

 ----------------------------------------------------------------------
 #p B3LYP/6-31G(d,p) EmpiricalDispersion=GD3BJ opt freq scf(xqc,tight)
 integral(grid=ultrafine)
 ----------------------------------------------------------------------

 ----------------------------------
 opt-freq conformers_unique/conf_aa
 ----------------------------------
 Symbolic Z-matrix:
 Charge =  0 Multiplicity = 1

 SCF Done:  E(RB3LYP) =  -3477.46448489     A.U. after   13 cycles
 SCF Done:  E(RB3LYP) =  -3477.46566722     A.U. after   10 cycles
 SCF Done:  E(RB3LYP) =  -3477.46588381     A.U. after   10 cycles
 SCF Done:  E(RB3LYP) =  -3477.46589538     A.U. after    8 cycles
 SCF Done:  E(RB3LYP) =  -3477.46589599     A.U. after    7 cycles
 SCF Done:  E(RB3LYP) =  -3477.46589618     A.U. after    7 cycles
 SCF Done:  E(RB3LYP) =  -3477.46589630     A.U. after    7 cycles
 SCF Done:  E(RB3LYP) =  -3477.46589643     A.U. after    7 cycles
 SCF Done:  E(RB3LYP) =  -3477.46589654     A.U. after    7 cycles
 SCF Done:  E(RB3LYP) =  -3477.46589662     A.U. after    7 cycles
 SCF Done:  E(RB3LYP) =  -3477.46589665     A.U. after    7 cycles
 Optimization completed.
    -- Stationary point found.
 Normal termination of Gaussian 16 at Tue Sep 17 09:51:08 2024.

 ----------------------------------------------------------------------
 #P Geom=AllCheck Guess=TCheck SCRF=Check GenChk RB3LYP/6-31G(d,p) Freq
 ----------------------------------------------------------------------

 Structure from the checkpoint file:  "smiles_00107_conf_0.chk"
 ----------------------------------
 opt-freq conformers_unique/conf_aa
 ----------------------------------
 Charge =  0 Multiplicity = 1

 SCF Done:  E(RB3LYP) =  -3477.46589665     A.U. after    1 cycles

                      1                      2                      3
                      A                      A                      A
 Frequencies --     14.9929                16.8456                82.8156
 Red. masses --     19.5891                18.8777                13.6919
 Frc consts  --      0.0026                 0.0032                 0.0553
 IR Inten    --      0.0131                 0.0292                 0.9711

                      4                      5                      6
                      A                      A                      A
 Frequencies --    110.0377               117.8129               146.2414
 Red. masses --     18.2604                21.1907                 7.6286
 Frc consts  --      0.1303                 0.1733                 0.0961
 IR Inten    --      0.8653                 0.1609                 0.0113

                      7                      8                      9
                      A                      A                      A
 Frequencies --    183.9103               252.8463               264.4708
 Red. masses --      5.0527                23.2587                12.5082
 Frc consts  --      0.1007                 0.8761                 0.5155
 IR Inten    --      0.0477                 0.0083                 0.9254

                     10                     11                     12
                      A                      A                      A
 Frequencies --    294.2526               314.5762               343.1774
 Red. masses --     14.4717                 5.6955                 8.6486
 Frc consts  --      0.7383                 0.3321                 0.6001
 IR Inten    --      1.3189                 0.0059                 1.1382

                     13                     14                     15
                      A                      A                      A
 Frequencies --    374.4198               418.0483               451.3649
 Red. masses --      8.0271                10.2322                 8.4809
 Frc consts  --      0.6630                 1.0536                 1.0180
 IR Inten    --      4.4596                 5.9674                 2.3257

                     16                     17                     18
                      A                      A                      A
 Frequencies --    497.4694               507.5519               567.1342
 Red. masses --     12.0597                 9.7875                15.0784
 Frc consts  --      1.7584                 1.4855                 2.8574
 IR Inten    --      0.0892                 3.0111                 0.0027

                     19                     20                     21
                      A                      A                      A
 Frequencies --    600.7054               606.5095               676.2397
 Red. masses --      7.0292                 8.4142                 7.5753
 Frc consts  --      1.4944                 1.8236                 2.0410
 IR Inten    --      1.2284                 0.3146                 1.5023

                     22                     23                     24
                      A                      A                      A
 Frequencies --    680.4873               702.4165               717.9979
 Red. masses --     13.2217                13.6435                 2.5192
 Frc consts  --      3.6073                 3.9661                 0.7652
 IR Inten    --     38.0177                40.3637                12.3487

                     25                     26                     27
                      A                      A                      A
 Frequencies --    800.9340               859.7810               913.4094
 Red. masses --     12.4097                11.9612                 1.5964
 Frc consts  --      4.6904                 5.2096                 0.7847
 IR Inten    --     41.2486                18.6383                42.3189

                     28                     29                     30
                      A                      A                      A
 Frequencies --    935.1210               943.4739              1017.6809
 Red. masses --      1.3592                 1.3782                 6.3931
 Frc consts  --      0.7003                 0.7228                 3.9011
 IR Inten    --      0.0583                 0.0233                 0.0068

                     31                     32                     33
                      A                      A                      A
 Frequencies --   1119.7483              1125.2044              1131.6381
 Red. masses --      5.7647                 1.8155                 2.0401
 Frc consts  --      4.2586                 1.3543                 1.5393
 IR Inten    --     11.5221                19.0777                 9.7115

                     34                     35                     36
                      A                      A                      A
 Frequencies --   1196.8215              1198.9080              1219.7025
 Red. masses --     12.9351                12.6846                 8.7054
 Frc consts  --     10.9164                10.7423                 7.6304
 IR Inten    --      0.0217               503.0626                96.5078

                     37                     38                     39
                      A                      A                      A
 Frequencies --   1226.0396              1292.9364              1297.5057
 Red. masses --      6.0559                 2.4872                 1.6688
 Frc consts  --      5.3634                 2.4497                 1.6553
 IR Inten    --    242.9265               417.5880               186.7741

                     40                     41                     42
                      A                      A                      A
 Frequencies --   1366.1731              1369.4516              1487.7764
 Red. masses --      5.4783                 5.8802                 4.2249
 Frc consts  --      6.0243                 6.4973                 5.5099
 IR Inten    --      2.2959               333.6650                 3.2006

                     43                     44                     45
                      A                      A                      A
 Frequencies --   1488.8411              1643.2490              1667.3694
 Red. masses --      4.0150                 6.7477                 6.2658
 Frc consts  --      5.2437                10.7353                10.2633
 IR Inten    --      9.5674                10.0003                 5.9677

                     46                     47                     48
                      A                      A                      A
 Frequencies --   3238.3831              3238.5825              3240.8532
 Red. masses --      1.0918                 1.0926                 1.0917
 Frc consts  --      6.7463                 6.7520                 6.7558
 IR Inten    --      1.6340                 0.3585                 0.9867

 - Thermochemistry -
 -------------------
 Temperature   298.150 Kelvin.  Pressure   1.00000 Atm.
 Atom     1 has atomic number  9 and mass  18.99840

 Molecular mass:   291.93223 amu.
 Principal axes and moments of inertia in atomic units:
                           1         2         3
     Eigenvalues --  4732.087955217.298679309.91709
           X            1.00000   0.00013   0.00000
           Y           -0.00013   1.00000   0.00038
           Z           -0.00000  -0.00038   1.00000
 This molecule is an asymmetric top.
 Rotational symmetry number  1.
 Warning -- assumption of classical behavior for rotation
           may cause significant error
 Rotational temperatures (Kelvin)      0.01830     0.01660     0.00930
 Rotational constants (GHZ):           0.38138     0.34591     0.19385
 Zero-point vibrational energy     262950.6 (Joules/Mol)
                                   62.84670 (Kcal/Mol)
 Warning -- explicit consideration of  20 degrees of freedom as
           vibrations may cause significant error
 Vibrational temperatures:     21.57    24.24   119.15   158.32   169.51
          (Kelvin)            210.41   264.61   363.79   380.51   423.36
                              452.60   493.76   538.71   601.48   649.41
                              715.75   730.25   815.98   864.28   872.63
                              972.96   979.07  1010.62  1033.04  1152.37
                             1237.03  1314.19  1345.43  1357.45  1464.22
                             1611.07  1618.92  1628.17  1721.96  1724.96
                             1754.88  1764.00  1860.25  1866.82  1965.62
                             1970.34  2140.58  2142.11  2364.27  2398.97
                             4659.31  4659.60  4662.86

 Zero-point correction=                           0.100153 (Hartree/Particle)
 Thermal correction to Energy=                    0.113168
 Thermal correction to Enthalpy=                  0.114112
 Thermal correction to Gibbs Free Energy=         0.056407
 Sum of electronic and zero-point Energies=          -3477.365744
 Sum of electronic and thermal Energies=             -3477.352729
 Sum of electronic and thermal Enthalpies=           -3477.351785
 Sum of electronic and thermal Free Energies=        -3477.409490

                     E (Thermal)             CV                S
                      KCal/Mol        Cal/Mol-Kelvin    Cal/Mol-Kelvin
 Total                   71.014             46.563            121.449
 Electronic               0.000              0.000              0.000
 Translational            0.889              2.981             42.911
 Rotational               0.889              2.981             33.796
 Vibrational             69.236             40.601             44.742
 Vibration     1          0.593              1.986              7.206
 Vibration     2          0.593              1.986              6.975
 Vibration     3          0.600              1.961              3.823
 Vibration     4          0.606              1.941              3.268
 Vibration     5          0.608              1.935              3.136
 Vibration     6          0.617              1.907              2.721
 Vibration     7          0.631              1.862              2.288
 Vibration     8          0.664              1.758              1.711
 Vibration     9          0.671              1.738              1.632
 Vibration    10          0.689              1.684              1.449
 Vibration    11          0.702              1.646              1.338
 Vibration    12          0.722              1.589              1.197
 Vibration    13          0.746              1.525              1.062
 Vibration    14          0.781              1.431              0.899
 Vibration    15          0.810              1.358              0.792
 Vibration    16          0.853              1.256              0.664
 Vibration    17          0.863              1.233              0.640
 Vibration    18          0.923              1.102              0.510
 Vibration    19          0.959              1.030              0.448
 Vibration    20          0.965              1.018              0.439

                           ! Non-Optimized Parameters !
 Normal termination of Gaussian 16 at Tue Sep 17 09:52:43 2024.

 ----------------------------------------------------------------------
 #p M062X/def2tzvp geom=check guess=read scf(xqc,tight) integral(grid=u
 ltrafine) scrf(SMD, solvent=1,4-Dioxane) polar prop=efg volume
 ----------------------------------------------------------------------

 ---
 spe
 ---
 Structure from the checkpoint file:  "smiles_00107_conf_0.chk"
 Charge =  0 Multiplicity = 1

 SCF Done:  E(RM062X) =  -3480.00555333     A.U. after   12 cycles

  Exact polarizability:     165.322      -0.007     137.980       0.000       0.904      79.841
 Approx polarizability:     176.607      -0.007     151.213       0.000       1.479      99.268

 Normal termination of Gaussian 16 at Tue Sep 17 10:40:47 2024.
 Gaussian 16:  ES64L-G16RevC.02  7-Dec-2021

 ----------------------------------------------------------------------
 #p M062X/def2tzvp geom=check guess=read scf(xqc,tight) integral(grid=u
 ltrafine) scrf(SMD, solvent=1,4-Dioxane) nmr=giao
 ----------------------------------------------------------------------

 ---
 spe
 ---
 Structure from the checkpoint file:  "smiles_00107_conf_0.chk"
 Charge =  0 Multiplicity = 1

                         Standard orientation:
 ---------------------------------------------------------------------
 Center     Atomic      Atomic             Coordinates (Angstroms)
 Number     Number       Type             X           Y           Z
 ---------------------------------------------------------------------
      1          9           0       -2.696072   -2.401456   -0.598860
      2          6           0       -1.490774   -2.507659   -0.002169
      3          9           0       -1.708246   -2.916790    1.266868
      4          9           0       -0.806033   -3.489297   -0.625352
      5          6           0       -0.740490   -1.201535   -0.033241
      6          6           0        0.654534   -1.212948   -0.035245
      7          6           0        1.337097   -0.000416   -0.000002
      8         35           0        3.240448   -0.000989   -0.000000
      9          6           0        0.655256    1.212498    0.035248
     10          6           0       -0.739796    1.201909    0.033240
     11          6           0       -1.489161    2.508560    0.002169
     12          9           0       -2.695391    2.402734    0.597020
     13          9           0       -1.704452    2.918933   -1.266838
     14          9           0       -0.804607    3.489186    0.627167
     15          6           0       -1.445140    0.000404   -0.000007
     16          1           0        1.197370   -2.148894   -0.068142
     17          1           0        1.198642    2.148128    0.068167
     18          1           0       -2.527638    0.000726   -0.000024
 ---------------------------------------------------------------------

 SCF Done:  E(RM062X) =  -3480.00555333     A.U. after    1 cycles

      1  F    Isotropic =   249.7481   Anisotropy =   137.9470

      2  C    Isotropic =    51.0696   Anisotropy =    12.5973

      3  F    Isotropic =   225.4251   Anisotropy =   148.4696

      4  F    Isotropic =   250.0090   Anisotropy =   137.5407

      5  C    Isotropic =    28.9501   Anisotropy =   187.2024

      6  C    Isotropic =    29.1689   Anisotropy =   195.5748

      7  C    Isotropic =    21.9235   Anisotropy =   155.7027

      8  Br   Isotropic =  2026.8283   Anisotropy =  1335.9082

      9  C    Isotropic =    29.1648   Anisotropy =   195.5859

     10  C    Isotropic =    28.9477   Anisotropy =   187.2068

     11  C    Isotropic =    51.0685   Anisotropy =    12.5974

     12  F    Isotropic =   249.7962   Anisotropy =   137.8946

     13  F    Isotropic =   225.4212   Anisotropy =   148.4719

     14  F    Isotropic =   249.9537   Anisotropy =   137.6092

     15  C    Isotropic =    40.5694   Anisotropy =   219.5796

     16  H    Isotropic =    23.0814   Anisotropy =    13.6923

     17  H    Isotropic =    23.0815   Anisotropy =    13.6912

     18  H    Isotropic =    23.1208   Anisotropy =    12.2287

 The electronic state is 1-A.
 Alpha  occ. eigenvalues -- -485.39380 -63.37852 -57.19804 -57.19558 -57.19550
 Alpha  occ. eigenvalues --  -25.29298 -25.29297 -25.29277 -25.29276 -25.28982
 Alpha  occ. eigenvalues --  -25.28982 -10.81490 -10.81490 -10.63261 -10.60056
 Alpha  occ. eigenvalues --  -10.60055 -10.59169 -10.59168 -10.59042  -9.04495
 Alpha  occ. eigenvalues --   -6.86926  -6.86016  -6.85988  -2.90303  -2.89975
 Alpha  occ. eigenvalues --   -2.89944  -2.89096  -2.89096  -1.47374  -1.47371
 Alpha  occ. eigenvalues --   -1.38582  -1.38580  -1.38252  -1.38252  -1.02261
 Alpha  occ. eigenvalues --   -0.93802  -0.93077  -0.85676  -0.82979  -0.82503
 Alpha  occ. eigenvalues --   -0.75192  -0.74304  -0.70466  -0.70284  -0.70230
 Alpha  occ. eigenvalues --   -0.70184  -0.67227  -0.63916  -0.61202  -0.59479
 Alpha  occ. eigenvalues --   -0.58699  -0.58428  -0.58237  -0.56923  -0.54777
 Alpha  occ. eigenvalues --   -0.54657  -0.54578  -0.53719  -0.52762  -0.52726
 Alpha  occ. eigenvalues --   -0.52100  -0.50518  -0.50358  -0.49150  -0.45301
 Alpha  occ. eigenvalues --   -0.44085  -0.40462  -0.36931  -0.35684  -0.32572
 Alpha virt. eigenvalues --   -0.03367  -0.02500   0.01930   0.09294   0.11098
 Alpha virt. eigenvalues --    0.11273   0.12077   0.13181   0.14828   0.15183
 Alpha virt. eigenvalues --    0.16493   0.17293   0.17497   0.19319   0.20571

 Mulliken charges:
               1
     1  F   -0.179774
     2  C    0.510989
     3  F   -0.176413
     4  F   -0.180638
     5  C    0.020144
     6  C   -0.190761
     7  C    0.066355
     8  Br  -0.070258
     9  C   -0.190843
    10  C    0.020131
    11  C    0.510984
    12  F   -0.179764
    13  F   -0.176413
    14  F   -0.180643
    15  C   -0.224190
    16  H    0.206088
    17  H    0.206080
    18  H    0.208925
 Sum of Mulliken charges =  -0.00000

 Dipole moment (field-independent basis, Debye):
    X=              1.3017    Y=             -0.0006    Z=              0.0000  Tot=              1.3017
 Quadrupole moment (field-independent basis, Debye-Ang):
   XX=            -96.2100   YY=           -102.4331   ZZ=            -97.4013
   XY=             -0.0028   XZ=              0.0002   YZ=              0.4523

 Normal termination of Gaussian 16 at Tue Sep 17 10:58:45 2024.
