 Gaussian 16, Revision C.02,

 ----------------------------------------------------------------------
 #p B3LYP/6-31G(d,p) EmpiricalDispersion=GD3BJ opt freq scf(xqc,tight)
 integral(grid=ultrafine)
 ----------------------------------------------------------------------

 ----------------------------------
 opt-freq conformers_unique/conf_ac
 ----------------------------------
 Symbolic Z-matrix:
 Charge =  0 Multiplicity = 1

 SCF Done:  E(RB3LYP) =  -2972.06917005     A.U. after   15 cycles
 SCF Done:  E(RB3LYP) =  -2972.07182447     A.U. after   14 cycles
 SCF Done:  E(RB3LYP) =  -2972.07224609     A.U. after   14 cycles
 SCF Done:  E(RB3LYP) =  -2972.07305730     A.U. after   14 cycles
 SCF Done:  E(RB3LYP) =  -2972.07339842     A.U. after   12 cycles
 SCF Done:  E(RB3LYP) =  -2972.07369424     A.U. after   15 cycles
 SCF Done:  E(RB3LYP) =  -2972.07414421     A.U. after   12 cycles
 SCF Done:  E(RB3LYP) =  -2972.07480736     A.U. after   13 cycles
 SCF Done:  E(RB3LYP) =  -2972.07521257     A.U. after   13 cycles
 SCF Done:  E(RB3LYP) =  -2972.07537555     A.U. after   11 cycles
 SCF Done:  E(RB3LYP) =  -2972.07537366     A.U. after   13 cycles
 SCF Done:  E(RB3LYP) =  -2972.07543789     A.U. after   12 cycles
 SCF Done:  E(RB3LYP) =  -2972.07543923     A.U. after    9 cycles
 SCF Done:  E(RB3LYP) =  -2972.07543935     A.U. after    8 cycles
 Optimization completed.
    -- Stationary point found.
 Normal termination of Gaussian 16 at Tue Sep 17 09:53:59 2024.

 ----------------------------------------------------------------------
 #P Geom=AllCheck Guess=TCheck SCRF=Check GenChk RB3LYP/6-31G(d,p) Freq
 ----------------------------------------------------------------------

 Structure from the checkpoint file:  "smiles_00067_conf_2.chk"
 ----------------------------------
 opt-freq conformers_unique/conf_ac
 ----------------------------------
 Charge =  0 Multiplicity = 1

 SCF Done:  E(RB3LYP) =  -2972.07543935     A.U. after    1 cycles

                      1                      2                      3
                      A                      A                      A
 Frequencies --     54.4590               135.5659               142.9640
 Red. masses --      4.1819                 9.0230                 6.0283
 Frc consts  --      0.0073                 0.0977                 0.0726
 IR Inten    --      3.9863                 1.6348                 2.2557

                      4                      5                      6
                      A                      A                      A
 Frequencies --    166.0953               186.8400               267.1221
 Red. masses --      1.0705                 3.3817                 4.1262
 Frc consts  --      0.0174                 0.0696                 0.1735
 IR Inten    --      0.2124                 0.1202                 6.7662

                      7                      8                      9
                      A                      A                      A
 Frequencies --    302.0676               391.4056               426.7446
 Red. masses --      9.1344                 6.3264                 3.8387
 Frc consts  --      0.4911                 0.5710                 0.4119
 IR Inten    --      0.7810                 4.6952                 2.4642

                     10                     11                     12
                      A                      A                      A
 Frequencies --    471.8531               478.0346               597.2388
 Red. masses --      4.4552                 4.2820                 4.5699
 Frc consts  --      0.5844                 0.5765                 0.9604
 IR Inten    --      0.0481                 3.9857                20.4671

                     13                     14                     15
                      A                      A                      A
 Frequencies --    626.3954               667.7625               719.2899
 Red. masses --      2.9448                 7.8854                 2.3623
 Frc consts  --      0.6808                 2.0717                 0.7201
 IR Inten    --      0.0366                21.9481                16.3770

                     16                     17                     18
                      A                      A                      A
 Frequencies --    812.3361               921.4595               973.8012
 Red. masses --      7.6039                 1.5454                 1.4429
 Frc consts  --      2.9564                 0.7731                 0.8061
 IR Inten    --     31.5386                10.7075                 1.6099

                     19                     20                     21
                      A                      A                      A
 Frequencies --    975.7331               983.9630              1038.3728
 Red. masses --      2.0639                 1.3593                 5.0661
 Frc consts  --      1.1577                 0.7754                 3.2183
 IR Inten    --     11.8131                 3.1489                21.9387

                     22                     23                     24
                      A                      A                      A
 Frequencies --   1050.1017              1106.3675              1114.7942
 Red. masses --      1.8896                 2.5827                 2.1069
 Frc consts  --      1.2277                 1.8626                 1.5427
 IR Inten    --      0.9351                 1.9525                10.3770

                     25                     26                     27
                      A                      A                      A
 Frequencies --   1204.0388              1285.5387              1302.7855
 Red. masses --      2.0715                 2.4846                 6.3229
 Frc consts  --      1.7693                 2.4192                 6.3228
 IR Inten    --     11.3009               259.1137                 4.0774

                     28                     29                     30
                      A                      A                      A
 Frequencies --   1342.5520              1397.3710              1456.3024
 Red. masses --      1.5704                 1.3344                 2.2596
 Frc consts  --      1.6677                 1.5351                 2.8234
 IR Inten    --      2.7319                45.2033                62.3148

                     31                     32                     33
                      A                      A                      A
 Frequencies --   1476.7778              1483.1933              1490.5911
 Red. masses --      1.9714                 1.2549                 1.0471
 Frc consts  --      2.5331                 1.6265                 1.3708
 IR Inten    --     19.1117                 5.1745                10.5671

                     34                     35                     36
                      A                      A                      A
 Frequencies --   1602.7778              1629.9121              1787.5494
 Red. masses --      5.8918                 5.9868                11.0433
 Frc consts  --      8.9175                 9.3708                20.7905
 IR Inten    --      1.0627                32.2854               142.7930

                     37                     38                     39
                      A                      A                      A
 Frequencies --   3051.4133              3115.0839              3173.4026
 Red. masses --      1.0379                 1.0999                 1.1020
 Frc consts  --      5.6936                 6.2884                 6.5386
 IR Inten    --      1.7457                 6.3735                10.1344

                     40                     41                     42
                      A                      A                      A
 Frequencies --   3188.9401              3193.1322              3232.2630
 Red. masses --      1.0889                 1.0935                 1.0922
 Frc consts  --      6.5241                 6.5689                 6.7228
 IR Inten    --     15.2868                 1.9733                 4.1510

 - Thermochemistry -
 -------------------
 Temperature   298.150 Kelvin.  Pressure   1.00000 Atm.
 Atom     1 has atomic number  6 and mass  12.00000

 Molecular mass:   198.96327 amu.
 Principal axes and moments of inertia in atomic units:
                           1         2         3
     Eigenvalues --   857.755293851.260474697.81074
           X            0.99995  -0.00972  -0.00001
           Y            0.00972   0.99995   0.00000
           Z            0.00001  -0.00000   1.00000
 This molecule is an asymmetric top.
 Rotational symmetry number  1.
 Warning -- assumption of classical behavior for rotation
           may cause significant error
 Rotational temperatures (Kelvin)      0.10098     0.02249     0.01844
 Rotational constants (GHZ):           2.10403     0.46861     0.38417
 Zero-point vibrational energy     305193.6 (Joules/Mol)
                                   72.94303 (Kcal/Mol)
 Warning -- explicit consideration of  12 degrees of freedom as
           vibrations may cause significant error
 Vibrational temperatures:     78.35   195.05   205.69   238.97   268.82
          (Kelvin)            384.33   434.61   563.15   613.99   678.89
                              687.79   859.29   901.24   960.76  1034.90
                             1168.77  1325.77  1401.08  1403.86  1415.70
                             1493.99  1510.86  1591.82  1603.94  1732.34
                             1849.60  1874.42  1931.63  2010.51  2095.29
                             2124.75  2133.98  2144.63  2306.04  2345.08
                             2571.88  4390.30  4481.91  4565.82  4588.17
                             4594.21  4650.51

 Zero-point correction=                           0.116242 (Hartree/Particle)
 Thermal correction to Energy=                    0.125371
 Thermal correction to Enthalpy=                  0.126315
 Thermal correction to Gibbs Free Energy=         0.080302
 Sum of electronic and zero-point Energies=          -2971.959197
 Sum of electronic and thermal Energies=             -2971.950069
 Sum of electronic and thermal Enthalpies=           -2971.949124
 Sum of electronic and thermal Free Energies=        -2971.995137

                     E (Thermal)             CV                S
                      KCal/Mol        Cal/Mol-Kelvin    Cal/Mol-Kelvin
 Total                   78.671             32.826             96.842
 Electronic               0.000              0.000              0.000
 Translational            0.889              2.981             41.769
 Rotational               0.889              2.981             31.118
 Vibrational             76.894             26.864             23.956
 Vibration     1          0.596              1.976              4.649
 Vibration     2          0.613              1.918              2.866
 Vibration     3          0.616              1.910              2.764
 Vibration     4          0.624              1.884              2.479
 Vibration     5          0.632              1.858              2.259
 Vibration     6          0.672              1.733              1.615
 Vibration     7          0.694              1.670              1.405
 Vibration     8          0.759              1.489              0.995
 Vibration     9          0.788              1.412              0.869
 Vibration    10          0.829              1.312              0.732
 Vibration    11          0.835              1.299              0.715
 Vibration    12          0.955              1.038              0.454

 Optimization completed.
    -- Stationary point found.
 Normal termination of Gaussian 16 at Tue Sep 17 09:54:47 2024.

 ----------------------------------------------------------------------
 #p M062X/def2tzvp geom=check guess=read scf(xqc,tight) integral(grid=u
 ltrafine) scrf(SMD, solvent=1,4-Dioxane) polar prop=efg volume
 ----------------------------------------------------------------------

 ---
 spe
 ---
 Structure from the checkpoint file:  "smiles_00067_conf_2.chk"
 Charge =  0 Multiplicity = 1

 SCF Done:  E(RM062X) =  -2974.51527009     A.U. after   12 cycles

  Exact polarizability:     173.485       2.463     130.942       0.000      -0.000      70.396
 Approx polarizability:     171.379       3.880     158.965       0.002      -0.001      88.132

 Normal termination of Gaussian 16 at Tue Sep 17 10:16:22 2024.
 Gaussian 16:  ES64L-G16RevC.02  7-Dec-2021

 ----------------------------------------------------------------------
 #p M062X/def2tzvp geom=check guess=read scf(xqc,tight) integral(grid=u
 ltrafine) scrf(SMD, solvent=1,4-Dioxane) nmr=giao
 ----------------------------------------------------------------------

 ---
 spe
 ---
 Structure from the checkpoint file:  "smiles_00067_conf_2.chk"
 Charge =  0 Multiplicity = 1

                         Standard orientation:
 ---------------------------------------------------------------------
 Center     Atomic      Atomic             Coordinates (Angstroms)
 Number     Number       Type             X           Y           Z
 ---------------------------------------------------------------------
      1          6           0        4.110529   -0.104571   -0.000380
      2          6           0        2.749281   -0.768098    0.000024
      3          8           0        2.633299   -1.982353    0.000339
      4          6           0        1.527764    0.102923    0.000040
      5          6           0        1.575615    1.501874    0.000123
      6          7           0        0.487890    2.281294    0.000125
      7          6           0       -0.706800    1.685603    0.000067
      8          6           0       -0.853841    0.294414    0.000026
      9         35           0       -2.600493   -0.464093   -0.000059
     10          6           0        0.270574   -0.514186    0.000019
     11          1           0        4.878193   -0.877947   -0.000633
     12          1           0        4.232621    0.532820    0.881928
     13          1           0        4.232117    0.533072   -0.882542
     14          1           0        2.527763    2.025110    0.000113
     15          1           0       -1.582897    2.328227    0.000109
     16          1           0        0.209093   -1.596005   -0.000000
 ---------------------------------------------------------------------

 SCF Done:  E(RM062X) =  -2974.51527009     A.U. after    1 cycles

      1  C    Isotropic =   155.5410   Anisotropy =    50.3429

      2  C    Isotropic =   -39.5206   Anisotropy =   209.4562

      3  O    Isotropic =  -419.0303   Anisotropy =  1163.9877

      4  C    Isotropic =    31.5984   Anisotropy =   188.9729

      5  C    Isotropic =    11.6339   Anisotropy =   204.3366

      6  N    Isotropic =  -146.0099   Anisotropy =   645.0009

      7  C    Isotropic =     4.4794   Anisotropy =   185.1872

      8  C    Isotropic =    26.0163   Anisotropy =   143.2626

      9  Br   Isotropic =  2119.0369   Anisotropy =  1217.2875

     10  C    Isotropic =    22.7856   Anisotropy =   220.0309

     11  H    Isotropic =    29.3513   Anisotropy =     6.2828

     12  H    Isotropic =    28.9627   Anisotropy =     4.7017

     13  H    Isotropic =    28.9625   Anisotropy =     4.6995

     14  H    Isotropic =    21.7708   Anisotropy =     8.5232

     15  H    Isotropic =    22.1626   Anisotropy =    11.8408

     16  H    Isotropic =    22.4780   Anisotropy =    12.0426

 The electronic state is 1-A.
 Alpha  occ. eigenvalues -- -485.38772 -63.37246 -57.19196 -57.18952 -57.18946
 Alpha  occ. eigenvalues --  -19.63117 -14.77353 -10.64800 -10.61962 -10.60376
 Alpha  occ. eigenvalues --  -10.60031 -10.58318 -10.57675 -10.54534  -9.03890
 Alpha  occ. eigenvalues --   -6.86316  -6.85411  -6.85389  -2.89692  -2.89365
 Alpha  occ. eigenvalues --   -2.89340  -2.88497  -2.88497  -1.17823  -1.07775
 Alpha  occ. eigenvalues --   -0.94993  -0.91574  -0.85494  -0.83502  -0.75102
 Alpha  occ. eigenvalues --   -0.72721  -0.64281  -0.61584  -0.58845  -0.55672
 Alpha  occ. eigenvalues --   -0.53020  -0.51525  -0.50340  -0.49626  -0.49187
 Alpha  occ. eigenvalues --   -0.46801  -0.44681  -0.44185  -0.40693  -0.36836
 Alpha  occ. eigenvalues --   -0.35637  -0.35494  -0.33628  -0.31827
 Alpha virt. eigenvalues --   -0.04690  -0.01492   0.02827   0.05356   0.07076
 Alpha virt. eigenvalues --    0.10683   0.12478   0.12902   0.13095   0.14242
 Alpha virt. eigenvalues --    0.14830   0.16428   0.16554   0.17328   0.20546

 Mulliken charges:
               1
     1  C   -0.535516
     2  C    0.295858
     3  O   -0.327907
     4  C    0.006980
     5  C   -0.074625
     6  N   -0.233421
     7  C   -0.054665
     8  C    0.046378
     9  Br  -0.080171
    10  C   -0.161992
    11  H    0.171944
    12  H    0.185897
    13  H    0.185892
    14  H    0.183553
    15  H    0.183225
    16  H    0.208569
 Sum of Mulliken charges =   0.00000

 Dipole moment (field-independent basis, Debye):
    X=              1.5153    Y=              1.5682    Z=             -0.0008  Tot=              2.1807
 Quadrupole moment (field-independent basis, Debye-Ang):
   XX=            -60.8477   YY=            -80.3439   ZZ=            -71.2687
   XY=              6.2368   XZ=             -0.0023   YZ=              0.0014

 Normal termination of Gaussian 16 at Tue Sep 17 10:24:14 2024.
