 Gaussian 16, Revision C.02,

 ----------------------------------------------------------------------
 #p B3LYP/gen pseudo=read EmpiricalDispersion=GD3BJ opt freq scf(xqc,ti
 ght) integral(grid=ultrafine)
 ----------------------------------------------------------------------

 ----------------------------------
 opt-freq conformers_unique/conf_ae
 ----------------------------------
 Symbolic Z-matrix:
 Charge =  0 Multiplicity = 1

 SCF Done:  E(RB3LYP) =  -470.927908389     A.U. after   15 cycles
 SCF Done:  E(RB3LYP) =  -470.929511662     A.U. after   13 cycles
 SCF Done:  E(RB3LYP) =  -470.929130733     A.U. after   13 cycles
 SCF Done:  E(RB3LYP) =  -470.929928277     A.U. after   13 cycles
 SCF Done:  E(RB3LYP) =  -470.930437641     A.U. after   14 cycles
 SCF Done:  E(RB3LYP) =  -470.909720426     A.U. after   15 cycles
 SCF Done:  E(RB3LYP) =  -470.931060983     A.U. after   13 cycles
 SCF Done:  E(RB3LYP) =  -470.931307730     A.U. after   13 cycles
 SCF Done:  E(RB3LYP) =  -470.931675150     A.U. after   13 cycles
 SCF Done:  E(RB3LYP) =  -470.932293209     A.U. after   14 cycles
 SCF Done:  E(RB3LYP) =  -470.933816568     A.U. after   11 cycles
 SCF Done:  E(RB3LYP) =  -470.933880306     A.U. after   13 cycles
 SCF Done:  E(RB3LYP) =  -470.933893711     A.U. after   12 cycles
 SCF Done:  E(RB3LYP) =  -470.933891659     A.U. after   13 cycles
 SCF Done:  E(RB3LYP) =  -470.933899989     A.U. after   12 cycles
 SCF Done:  E(RB3LYP) =  -470.933900251     A.U. after    8 cycles
 SCF Done:  E(RB3LYP) =  -470.933900280     A.U. after    8 cycles
 Optimization completed.
    -- Stationary point found.
 Normal termination of Gaussian 16 at Tue Sep 17 10:01:27 2024.

 ------------------------------------------------------------------
 #P Geom=AllCheck Guess=TCheck SCRF=Check GenChk RB3LYP/ChkBas Freq
 ------------------------------------------------------------------

 Structure from the checkpoint file:  "smiles_00115_conf_4.chk"
 ----------------------------------
 opt-freq conformers_unique/conf_ae
 ----------------------------------
 Charge =  0 Multiplicity = 1

 SCF Done:  E(RB3LYP) =  -470.933900280     A.U. after    1 cycles

                      1                      2                      3
                      A                      A                      A
 Frequencies --     31.8896                92.1352               114.4142
 Red. masses --      7.0828                 3.4931                 3.3713
 Frc consts  --      0.0042                 0.0175                 0.0260
 IR Inten    --      1.6788                 0.4865                 0.4657

                      4                      5                      6
                      A                      A                      A
 Frequencies --    134.9357               148.5921               194.8144
 Red. masses --      1.4728                 3.0207                 5.5313
 Frc consts  --      0.0158                 0.0393                 0.1237
 IR Inten    --      0.8165                 2.6610                 1.3544

                      7                      8                      9
                      A                      A                      A
 Frequencies --    236.6191               252.3883               342.5144
 Red. masses --      7.4281                 5.6581                 4.9263
 Frc consts  --      0.2450                 0.2124                 0.3405
 IR Inten    --      0.8893                 1.2917                17.2363

                     10                     11                     12
                      A                      A                      A
 Frequencies --    386.7631               429.3195               469.7424
 Red. masses --      6.6798                 3.9647                 4.4943
 Frc consts  --      0.5887                 0.4305                 0.5843
 IR Inten    --      2.2229                 2.7664                 6.4266

                     13                     14                     15
                      A                      A                      A
 Frequencies --    527.9587               651.7503               699.5609
 Red. masses --      5.1674                 6.6642                 6.0977
 Frc consts  --      0.8486                 1.6679                 1.7582
 IR Inten    --      3.7176                 9.6734                14.0773

                     16                     17                     18
                      A                      A                      A
 Frequencies --    704.5401               756.7015               805.0637
 Red. masses --      5.5058                 1.5750                 2.7666
 Frc consts  --      1.6102                 0.5314                 1.0565
 IR Inten    --     11.2522                46.3741                 3.8095

                     19                     20                     21
                      A                      A                      A
 Frequencies --    839.4278               891.7772               972.1299
 Red. masses --      5.2370                 1.3754                 1.3742
 Frc consts  --      2.1742                 0.6444                 0.7652
 IR Inten    --      6.1408                 0.1863                 1.5397

                     22                     23                     24
                      A                      A                      A
 Frequencies --   1002.1322              1004.0746              1029.6108
 Red. masses --      3.1230                 1.6904                 7.9322
 Frc consts  --      1.8479                 1.0041                 4.9544
 IR Inten    --     17.9260                 8.9013                57.3842

                     25                     26                     27
                      A                      A                      A
 Frequencies --   1080.0036              1135.4629              1167.8457
 Red. masses --      2.4135                 2.3787                 1.9282
 Frc consts  --      1.6587                 1.8069                 1.5494
 IR Inten    --     10.3144                63.1465                59.4219

                     28                     29                     30
                      A                      A                      A
 Frequencies --   1180.4214              1195.6572              1217.5225
 Red. masses --      1.2791                 1.0904                 1.6304
 Frc consts  --      1.0501                 0.9184                 1.4240
 IR Inten    --      1.3281                 1.9570                54.3623

                     31                     32                     33
                      A                      A                      A
 Frequencies --   1290.3811              1297.3585              1345.7884
 Red. masses --      4.9988                 1.4523                 8.2620
 Frc consts  --      4.9040                 1.4402                 8.8164
 IR Inten    --    390.3962                12.3401                53.6502

                     34                     35                     36
                      A                      A                      A
 Frequencies --   1468.4293              1480.6738              1493.8616
 Red. masses --      2.0779                 1.1992                 1.0463
 Frc consts  --      2.6399                 1.5491                 1.3757
 IR Inten    --     22.0152                13.2524                 6.1924

                     37                     38                     39
                      A                      A                      A
 Frequencies --   1507.4421              1510.6207              1618.1964
 Red. masses --      1.7959                 1.2465                 5.6326
 Frc consts  --      2.4044                 1.6759                 8.6900
 IR Inten    --     32.9831                 1.2664                15.7621

                     40                     41                     42
                      A                      A                      A
 Frequencies --   1643.2485              1823.8793              3067.0077
 Red. masses --      5.9202                12.0054                 1.0297
 Frc consts  --      9.4188                23.5299                 5.7070
 IR Inten    --     25.4067               187.3231                35.8048

                     43                     44                     45
                      A                      A                      A
 Frequencies --   3143.8520              3177.0620              3194.0020
 Red. masses --      1.1068                 1.1073                 1.0868
 Frc consts  --      6.4456                 6.5850                 6.5322
 IR Inten    --     18.9142                15.9164                 2.6647

                     46                     47                     48
                      A                      A                      A
 Frequencies --   3209.9492              3223.7189              3238.2551
 Red. masses --      1.0927                 1.0946                 1.0929
 Frc consts  --      6.6335                 6.7024                 6.7522
 IR Inten    --     11.8193                 7.0455                 3.1357

 - Thermochemistry -
 -------------------
 Temperature   298.150 Kelvin.  Pressure   1.00000 Atm.
 Atom     1 has atomic number  6 and mass  12.00000

 Molecular mass:   261.94500 amu.
 Principal axes and moments of inertia in atomic units:
                           1         2         3
     Eigenvalues --  2053.550133306.001365287.94580
           X            0.99297  -0.11832   0.00390
           Y            0.11832   0.99297  -0.00155
           Z           -0.00369   0.00201   0.99999
 This molecule is an asymmetric top.
 Rotational symmetry number  1.
 Warning -- assumption of classical behavior for rotation
           may cause significant error
 Rotational temperatures (Kelvin)      0.04218     0.02620     0.01638
 Rotational constants (GHZ):           0.87884     0.54590     0.34129
 Zero-point vibrational energy     349486.0 (Joules/Mol)
                                   83.52916 (Kcal/Mol)
 Warning -- explicit consideration of  13 degrees of freedom as
           vibrations may cause significant error
 Vibrational temperatures:     45.88   132.56   164.62   194.14   213.79
          (Kelvin)            280.29   340.44   363.13   492.80   556.47
                              617.69   675.85   759.61   937.72  1006.51
                             1013.68  1088.72  1158.31  1207.75  1283.07
                             1398.68  1441.84  1444.64  1481.38  1553.88
                             1633.68  1680.27  1698.36  1720.28  1751.74
                             1856.57  1866.61  1936.29  2112.74  2130.36
                             2149.33  2168.87  2173.45  2328.22  2364.27
                             2624.16  4412.74  4523.30  4571.08  4595.46
                             4618.40  4638.21  4659.13

 Zero-point correction=                           0.133112 (Hartree/Particle)
 Thermal correction to Energy=                    0.143554
 Thermal correction to Enthalpy=                  0.144498
 Thermal correction to Gibbs Free Energy=         0.094459
 Sum of electronic and zero-point Energies=           -470.800788
 Sum of electronic and thermal Energies=              -470.790347
 Sum of electronic and thermal Enthalpies=            -470.789402
 Sum of electronic and thermal Free Energies=         -470.839442

                     E (Thermal)             CV                S
                      KCal/Mol        Cal/Mol-Kelvin    Cal/Mol-Kelvin
 Total                   90.081             36.922            105.316
 Electronic               0.000              0.000              0.000
 Translational            0.889              2.981             42.588
 Rotational               0.889              2.981             31.951
 Vibrational             88.304             30.961             30.776
 Vibration     1          0.594              1.983              5.708
 Vibration     2          0.602              1.955              3.614
 Vibration     3          0.607              1.937              3.193
 Vibration     4          0.613              1.918              2.874
 Vibration     5          0.618              1.904              2.690
 Vibration     6          0.635              1.847              2.182
 Vibration     7          0.656              1.785              1.828
 Vibration     8          0.664              1.759              1.714
 Vibration     9          0.722              1.590              1.200
 Vibration    10          0.755              1.498              1.013
 Vibration    11          0.791              1.406              0.861
 Vibration    12          0.827              1.317              0.738
 Vibration    13          0.883              1.188              0.592

 Optimization completed.
    -- Stationary point found.
 Normal termination of Gaussian 16 at Tue Sep 17 10:02:12 2024.

 ----------------------------------------------------------------------
 #p M062X/def2tzvp geom=check guess=read scf(xqc,tight) integral(grid=u
 ltrafine) scrf(SMD, solvent=1,4-Dioxane) polar prop=efg volume
 ----------------------------------------------------------------------

 ---
 spe
 ---
 Structure from the checkpoint file:  "smiles_00115_conf_4.chk"
 Charge =  0 Multiplicity = 1

 SCF Done:  E(RM062X) =  -757.140074244     A.U. after   24 cycles

  Exact polarizability:     178.284      11.574     184.274       0.501       1.161      86.007
 Approx polarizability:     190.695      17.072     198.702       1.662       3.638     110.079

 1\1\GINC-HPC-54-28\SP\RM062X\def2TZVP\C8H7I1O2\MANTIND\17-Sep-2024\0\\
 #p M062X/def2tzvp geom=check guess=read scf(xqc,tight) integral(grid=u
 ltrafine) scrf(SMD, solvent=1,4-Dioxane) polar prop=efg volume\\spe\\0
 ,1\C,0,-0.8899760922,-3.7247820204,0.9641911287\O,0,-1.2741035116,-2.3
 445369486,1.0496628605\C,0,-0.708133407,-1.5405193946,0.1164856125\O,0
 ,0.0799213899,-1.9468731172,-0.7082877562\C,0,-1.2071851071,-0.1363793
 283,0.2405011831\C,0,-2.4608804917,0.0724714914,0.8438651275\C,0,-3.01
 54344896,1.3421107469,0.9471103784\C,0,-2.3116382662,2.4404448926,0.45

 Normal termination of Gaussian 16 at Tue Sep 17 10:42:59 2024.
 Gaussian 16:  ES64L-G16RevC.02  7-Dec-2021

 ----------------------------------------------------------------------
 #p M062X/def2tzvp geom=check guess=read scf(xqc,tight) integral(grid=u
 ltrafine) scrf(SMD, solvent=1,4-Dioxane) nmr=giao
 ----------------------------------------------------------------------

 ---
 spe
 ---
 Structure from the checkpoint file:  "smiles_00115_conf_4.chk"
 Charge =  0 Multiplicity = 1

                         Standard orientation:
 ---------------------------------------------------------------------
 Center     Atomic      Atomic             Coordinates (Angstroms)
 Number     Number       Type             X           Y           Z
 ---------------------------------------------------------------------
      1          6           0       -3.566320    2.073303   -0.200757
      2          8           0       -2.909316    0.801364   -0.302997
      3          6           0       -1.634053    0.784313    0.156352
      4          8           0       -1.081491    1.768916    0.594116
      5          6           0       -1.047406   -0.588281    0.067626
      6          6           0       -1.925828   -1.687256    0.060658
      7          6           0       -1.454948   -2.994062    0.034160
      8          6           0       -0.081023   -3.227882   -0.000172
      9          6           0        0.809123   -2.155711   -0.009510
     10          6           0        0.333382   -0.843398    0.030061
     11         53           0        1.839693    0.679570   -0.050324
     12          1           0       -3.026678    2.829709   -0.775421
     13          1           0       -4.565497    1.920637   -0.607779
     14          1           0       -3.618951    2.396839    0.841807
     15          1           0       -2.990100   -1.489298    0.083886
     16          1           0       -2.155315   -3.822862    0.038410
     17          1           0        0.305372   -4.242257   -0.024048
     18          1           0        1.876360   -2.338368   -0.049141
 ---------------------------------------------------------------------

 SCF Done:  E(RM062X) =  -757.140074244     A.U. after    1 cycles

      1  C    Isotropic =   130.6010   Anisotropy =    71.9332

      2  O    Isotropic =   128.2973   Anisotropy =   169.3364

      3  C    Isotropic =    -0.6818   Anisotropy =   106.4015

      4  O    Isotropic =  -156.1860   Anisotropy =   729.0293

      5  C    Isotropic =    28.7938   Anisotropy =   185.7848

      6  C    Isotropic =    28.5253   Anisotropy =   218.0438

      7  C    Isotropic =    35.6219   Anisotropy =   217.0764

      8  C    Isotropic =    28.7401   Anisotropy =   215.2007

      9  C    Isotropic =    22.4990   Anisotropy =   180.4285

     10  C    Isotropic =    22.9452   Anisotropy =   163.6849

     11  I    Isotropic =   430.7911   Anisotropy =    72.3961

     12  H    Isotropic =    27.9199   Anisotropy =     7.9137

     13  H    Isotropic =    28.0518   Anisotropy =     8.0253

     14  H    Isotropic =    27.9950   Anisotropy =     8.3612

     15  H    Isotropic =    22.7955   Anisotropy =    10.0010

     16  H    Isotropic =    23.6025   Anisotropy =     5.8604

     17  H    Isotropic =    23.5387   Anisotropy =     6.3605

     18  H    Isotropic =    23.2793   Anisotropy =    13.5929

 The electronic state is 1-A.
 Alpha  occ. eigenvalues --  -19.67608 -19.62336 -10.68325 -10.60924 -10.58865
 Alpha  occ. eigenvalues --  -10.57926 -10.56336 -10.56249 -10.56163 -10.55678
 Alpha  occ. eigenvalues --   -7.10101  -5.09493  -5.08411  -5.08339  -2.06312
 Alpha  occ. eigenvalues --   -2.05890  -2.05834  -2.04930  -2.04925  -1.23729
 Alpha  occ. eigenvalues --   -1.14501  -0.98402  -0.88466  -0.86995  -0.81877
 Alpha  occ. eigenvalues --   -0.77632  -0.72430  -0.69249  -0.65355  -0.62001
 Alpha  occ. eigenvalues --   -0.57209  -0.56924  -0.56268  -0.53219  -0.52507
 Alpha  occ. eigenvalues --   -0.49132  -0.48145  -0.47701  -0.45158  -0.43702
 Alpha  occ. eigenvalues --   -0.43406  -0.39329  -0.38271  -0.37186  -0.35528
 Alpha  occ. eigenvalues --   -0.32698  -0.30876  -0.29478
 Alpha virt. eigenvalues --   -0.02693  -0.00407   0.00319   0.07782   0.08317
 Alpha virt. eigenvalues --    0.09298   0.10922   0.11699   0.13075   0.13517
 Alpha virt. eigenvalues --    0.15220   0.15794   0.15892   0.16880   0.17450

 Mulliken charges:
               1
     1  C   -0.262694
     2  O   -0.282851
     3  C    0.366399
     4  O   -0.345092
     5  C    0.049679
     6  C   -0.168250
     7  C   -0.158282
     8  C   -0.138807
     9  C   -0.168189
    10  C   -0.005275
    11  I   -0.065399
    12  H    0.161091
    13  H    0.155186
    14  H    0.160559
    15  H    0.179673
    16  H    0.169208
    17  H    0.171718
    18  H    0.181326
 Sum of Mulliken charges =  -0.00000

 Dipole moment (field-independent basis, Debye):
    X=             -2.5821    Y=             -2.6121    Z=             -0.5955  Tot=              3.7209
 Quadrupole moment (field-independent basis, Debye-Ang):
   XX=            -71.7483   YY=            -73.5522   ZZ=            -88.3099
   XY=             -3.3562   XZ=             -0.0066   YZ=             -2.2983

 1\1\GINC-HPC-54-28\SP\RM062X\def2TZVP\C8H7I1O2\MANTIND\17-Sep-2024\0\\
 #p M062X/def2tzvp geom=check guess=read scf(xqc,tight) integral(grid=u
 ltrafine) scrf(SMD, solvent=1,4-Dioxane) nmr=giao\\spe\\0,1\C,0,-0.889
 9760922,-3.7247820204,0.9641911287\O,0,-1.2741035116,-2.3445369486,1.0
 496628605\C,0,-0.708133407,-1.5405193946,0.1164856125\O,0,0.0799213899
 ,-1.9468731172,-0.7082877562\C,0,-1.2071851071,-0.1363793283,0.2405011
 831\C,0,-2.4608804917,0.0724714914,0.8438651275\C,0,-3.0154344896,1.34
 21107469,0.9471103784\C,0,-2.3116382662,2.4404448926,0.455323805\C,0,-

 Normal termination of Gaussian 16 at Tue Sep 17 10:53:59 2024.
