 Gaussian 16, Revision C.02,

 ----------------------------------------------------------------------
 #p B3LYP/6-31G(d,p) EmpiricalDispersion=GD3BJ opt freq scf(xqc,tight)
 integral(grid=ultrafine)
 ----------------------------------------------------------------------

 ----------------------------------
 opt-freq conformers_unique/conf_ae
 ----------------------------------
 Symbolic Z-matrix:
 Charge =  0 Multiplicity = 1

 SCF Done:  E(RB3LYP) =  -3150.42139441     A.U. after   13 cycles
 SCF Done:  E(RB3LYP) =  -3150.42279850     A.U. after   11 cycles
 SCF Done:  E(RB3LYP) =  -3150.42302579     A.U. after   11 cycles
 SCF Done:  E(RB3LYP) =  -3150.42316507     A.U. after   11 cycles
 SCF Done:  E(RB3LYP) =  -3150.42320594     A.U. after   11 cycles
 SCF Done:  E(RB3LYP) =  -3150.42322532     A.U. after    9 cycles
 SCF Done:  E(RB3LYP) =  -3150.42323321     A.U. after    9 cycles
 SCF Done:  E(RB3LYP) =  -3150.42323490     A.U. after    8 cycles
 SCF Done:  E(RB3LYP) =  -3150.42323706     A.U. after    9 cycles
 SCF Done:  E(RB3LYP) =  -3150.42323960     A.U. after    9 cycles
 SCF Done:  E(RB3LYP) =  -3150.42324057     A.U. after    8 cycles
 SCF Done:  E(RB3LYP) =  -3150.42324074     A.U. after    7 cycles
 SCF Done:  E(RB3LYP) =  -3150.42324077     A.U. after    7 cycles
 SCF Done:  E(RB3LYP) =  -3150.42324079     A.U. after    6 cycles
 Optimization completed.
    -- Stationary point found.
 Normal termination of Gaussian 16 at Tue Sep 17 09:54:44 2024.

 ----------------------------------------------------------------------
 #P Geom=AllCheck Guess=TCheck SCRF=Check GenChk RB3LYP/6-31G(d,p) Freq
 ----------------------------------------------------------------------

 Structure from the checkpoint file:  "smiles_00034_conf_4.chk"
 ----------------------------------
 opt-freq conformers_unique/conf_ae
 ----------------------------------
 Charge =  0 Multiplicity = 1

 SCF Done:  E(RB3LYP) =  -3150.42324079     A.U. after    1 cycles

                      1                      2                      3
                      A                      A                      A
 Frequencies --     24.0084                33.6792                43.1326
 Red. masses --      4.0399                 2.7014                 2.7081
 Frc consts  --      0.0014                 0.0018                 0.0030
 IR Inten    --      0.0604                 0.0281                 0.3421

                      4                      5                      6
                      A                      A                      A
 Frequencies --     70.3004               105.5424               122.7623
 Red. masses --      3.7299                 2.9306                 2.8937
 Frc consts  --      0.0109                 0.0192                 0.0257
 IR Inten    --      0.3090                 0.3362                 1.2353

                      7                      8                      9
                      A                      A                      A
 Frequencies --    175.7656               183.8034               205.3086
 Red. masses --      3.0460                 4.5593                 3.9860
 Frc consts  --      0.0554                 0.0908                 0.0990
 IR Inten    --      3.5950                 1.1914                 0.8179

                     10                     11                     12
                      A                      A                      A
 Frequencies --    229.4783               253.7810               262.1414
 Red. masses --      3.2023                 1.2977                 1.4925
 Frc consts  --      0.0994                 0.0492                 0.0604
 IR Inten    --      0.8106                 0.1315                 1.4987

                     13                     14                     15
                      A                      A                      A
 Frequencies --    304.4987               321.7941               347.1884
 Red. masses --      4.5755                 3.5755                 2.8578
 Frc consts  --      0.2500                 0.2181                 0.2030
 IR Inten    --      0.4972                 5.4444                 2.0778

                     16                     17                     18
                      A                      A                      A
 Frequencies --    352.8745               448.9728               456.0795
 Red. masses --      4.1480                 3.1202                 3.5114
 Frc consts  --      0.3043                 0.3706                 0.4303
 IR Inten    --      7.4828                 2.1588                 3.0897

                     19                     20                     21
                      A                      A                      A
 Frequencies --    487.1412               530.8254               641.3440
 Red. masses --      4.8515                 4.9999                 5.0881
 Frc consts  --      0.6783                 0.8301                 1.2331
 IR Inten    --      7.1653                 1.0540                 7.7986

                     22                     23                     24
                      A                      A                      A
 Frequencies --    677.0143               700.1380               744.3648
 Red. masses --      6.6297                 3.2344                 3.6541
 Frc consts  --      1.7904                 0.9341                 1.1929
 IR Inten    --     21.4609                 9.2424                19.4697

                     25                     26                     27
                      A                      A                      A
 Frequencies --    800.0533               813.7585               824.0513
 Red. masses --      1.4332                 1.1888                 1.0962
 Frc consts  --      0.5405                 0.4638                 0.4386
 IR Inten    --     32.7238                 3.1277                 0.0554

                     28                     29                     30
                      A                      A                      A
 Frequencies --    854.6949               887.5793               912.5812
 Red. masses --      2.4189                 2.6774                 1.6981
 Frc consts  --      1.0411                 1.2427                 0.8332
 IR Inten    --      4.6014                11.2249                10.8286

                     31                     32                     33
                      A                      A                      A
 Frequencies --    937.3270               961.1194               995.4324
 Red. masses --      1.3412                 2.2463                 1.3200
 Frc consts  --      0.6943                 1.2226                 0.7707
 IR Inten    --      2.1210                10.4758                 1.6028

                     34                     35                     36
                      A                      A                      A
 Frequencies --   1017.3340              1030.1972              1037.4556
 Red. masses --      5.3528                 2.8257                 3.7828
 Frc consts  --      3.2641                 1.7669                 2.3989
 IR Inten    --      2.2343                 4.5115                38.6822

                     37                     38                     39
                      A                      A                      A
 Frequencies --   1087.8437              1098.2371              1110.1690
 Red. masses --      4.7441                 2.1202                 2.4918
 Frc consts  --      3.3078                 1.5067                 1.8094
 IR Inten    --    182.2033                17.2189                78.5863

                     40                     41                     42
                      A                      A                      A
 Frequencies --   1125.0715              1141.9599              1152.5089
 Red. masses --      1.6978                 2.2406                 2.8967
 Frc consts  --      1.2662                 1.7215                 2.2669
 IR Inten    --     61.4291                43.8000               111.5133

                     43                     44                     45
                      A                      A                      A
 Frequencies --   1192.9700              1194.0092              1210.1387
 Red. masses --      1.5111                 1.1309                 1.8751
 Frc consts  --      1.2671                 0.9499                 1.6179
 IR Inten    --      2.0662                12.5910                46.4322

                     46                     47                     48
                      A                      A                      A
 Frequencies --   1221.7849              1302.1371              1314.4597
 Red. masses --      2.5808                 1.1287                 1.4314
 Frc consts  --      2.2698                 1.1276                 1.4572
 IR Inten    --    114.2612                 0.4261                 4.8193

                     49                     50                     51
                      A                      A                      A
 Frequencies --   1329.6890              1353.6417              1375.3366
 Red. masses --      1.1408                 4.5541                 1.4098
 Frc consts  --      1.1884                 4.9165                 1.5711
 IR Inten    --     48.7863                 1.6261               100.6748

                     52                     53                     54
                      A                      A                      A
 Frequencies --   1396.2690              1406.2350              1414.3994
 Red. masses --      1.1882                 1.2300                 1.2596
 Frc consts  --      1.3649                 1.4330                 1.4847
 IR Inten    --      3.3014                 0.7438                 2.1450

                     55                     56                     57
                      A                      A                      A
 Frequencies --   1433.2531              1438.8028              1462.5361
 Red. masses --      1.3413                 1.3670                 2.6502
 Frc consts  --      1.6234                 1.6673                 3.3400
 IR Inten    --     17.6482                19.0919                24.6171

                     58                     59                     60
                      A                      A                      A
 Frequencies --   1498.2371              1499.6596              1506.5449
 Red. masses --      1.0415                 1.0428                 1.0705
 Frc consts  --      1.3774                 1.3818                 1.4315
 IR Inten    --      4.6185                 3.7723                 0.8994

                     61                     62                     63
                      A                      A                      A
 Frequencies --   1515.7543              1516.2432              1530.5568
 Red. masses --      1.4231                 1.4969                 1.0706
 Frc consts  --      1.9264                 2.0276                 1.4776
 IR Inten    --      7.6466                15.3406                 8.5189

                     64                     65                     66
                      A                      A                      A
 Frequencies --   1546.1291              1629.1938              1653.2970
 Red. masses --      1.0868                 6.2267                 6.3063
 Frc consts  --      1.5307                 9.7376                10.1561
 IR Inten    --      0.5649                22.3133                10.6610

                     67                     68                     69
                      A                      A                      A
 Frequencies --   3003.1256              3008.6365              3034.8941
 Red. masses --      1.0805                 1.0713                 1.0591
 Frc consts  --      5.7413                 5.7132                 5.7475
 IR Inten    --      8.1614                83.9646                27.6411

                     70                     71                     72
                      A                      A                      A
 Frequencies --   3051.9123              3053.0820              3078.6270
 Red. masses --      1.0378                 1.0351                 1.1039
 Frc consts  --      5.6952                 5.6849                 6.1647
 IR Inten    --     16.6334                21.0877                25.7990

                     73                     74                     75
                      A                      A                      A
 Frequencies --   3089.9135              3120.7035              3128.4289
 Red. masses --      1.0963                 1.1014                 1.1022
 Frc consts  --      6.1668                 6.3198                 6.3559
 IR Inten    --     32.5796                35.7814                26.5262

                     76                     77                     78
                      A                      A                      A
 Frequencies --   3132.7039              3155.6671              3193.1001
 Red. masses --      1.1038                 1.1018                 1.0886
 Frc consts  --      6.3824                 6.4647                 6.5397
 IR Inten    --     34.0539                18.1358                10.7875

                     79                     80                     81
                      A                      A                      A
 Frequencies --   3222.8540              3223.4689              3237.1679
 Red. masses --      1.0926                 1.0924                 1.0925
 Frc consts  --      6.6864                 6.6875                 6.7454
 IR Inten    --      2.1325                 1.5630                 3.1338

 - Thermochemistry -
 -------------------
 Temperature   298.150 Kelvin.  Pressure   1.00000 Atm.
 Atom     1 has atomic number  6 and mass  12.00000

 Molecular mass:   258.02554 amu.
 Principal axes and moments of inertia in atomic units:
                           1         2         3
     Eigenvalues --  1928.622887592.269108906.47783
           X            0.99959   0.02756  -0.00810
           Y           -0.02739   0.99941   0.02068
           Z            0.00866  -0.02045   0.99975
 This molecule is an asymmetric top.
 Rotational symmetry number  1.
 Warning -- assumption of classical behavior for rotation
           may cause significant error
 Rotational temperatures (Kelvin)      0.04491     0.01141     0.00972
 Rotational constants (GHZ):           0.93577     0.23771     0.20263
 Zero-point vibrational energy     635126.6 (Joules/Mol)
                                  151.79890 (Kcal/Mol)
 Warning -- explicit consideration of  20 degrees of freedom as
           vibrations may cause significant error
 Vibrational temperatures:     34.54    48.46    62.06   101.15   151.85
          (Kelvin)            176.63   252.89   264.45   295.39   330.17
                              365.13   377.16   438.11   462.99   499.53
                              507.71   645.97   656.20   700.89   763.74
                              922.75   974.07  1007.34  1070.97  1151.10
                             1170.82  1185.63  1229.72  1277.03  1313.00
                             1348.60  1382.84  1432.21  1463.72  1482.22
                             1492.67  1565.16  1580.12  1597.29  1618.73
                             1643.03  1658.20  1716.42  1717.91  1741.12
                             1757.88  1873.48  1891.21  1913.13  1947.59
                             1978.80  2008.92  2023.26  2035.01  2062.13
                             2070.12  2104.26  2155.63  2157.68  2167.58
                             2180.83  2181.54  2202.13  2224.53  2344.05
                             2378.73  4320.83  4328.76  4366.54  4391.02
                             4392.70  4429.46  4445.70  4490.00  4501.11
                             4507.26  4540.30  4594.16  4636.97  4637.85
                             4657.56

 Zero-point correction=                           0.241907 (Hartree/Particle)
 Thermal correction to Energy=                    0.256678
 Thermal correction to Enthalpy=                  0.257622
 Thermal correction to Gibbs Free Energy=         0.197337
 Sum of electronic and zero-point Energies=          -3150.181334
 Sum of electronic and thermal Energies=             -3150.166563
 Sum of electronic and thermal Enthalpies=           -3150.165619
 Sum of electronic and thermal Free Energies=        -3150.225904

                     E (Thermal)             CV                S
                      KCal/Mol        Cal/Mol-Kelvin    Cal/Mol-Kelvin
 Total                  161.068             53.608            126.880
 Electronic               0.000              0.000              0.000
 Translational            0.889              2.981             42.543
 Rotational               0.889              2.981             33.233
 Vibrational            159.290             47.647             51.104
 Vibration     1          0.593              1.985              6.272
 Vibration     2          0.594              1.983              5.600
 Vibration     3          0.595              1.980              5.110
 Vibration     4          0.598              1.968              4.145
 Vibration     5          0.605              1.945              3.349
 Vibration     6          0.610              1.930              3.056
 Vibration     7          0.628              1.872              2.373
 Vibration     8          0.631              1.862              2.289
 Vibration     9          0.640              1.832              2.085
 Vibration    10          0.652              1.796              1.883
 Vibration    11          0.665              1.756              1.704
 Vibration    12          0.669              1.742              1.647
 Vibration    13          0.695              1.665              1.392
 Vibration    14          0.707              1.632              1.301
 Vibration    15          0.725              1.581              1.179
 Vibration    16          0.729              1.569              1.153
 Vibration    17          0.808              1.363              0.799
 Vibration    18          0.814              1.347              0.778
 Vibration    19          0.843              1.279              0.691
 Vibration    20          0.886              1.182              0.585

                           ! Non-Optimized Parameters !
 Normal termination of Gaussian 16 at Tue Sep 17 09:58:08 2024.

 ----------------------------------------------------------------------
 #p M062X/def2tzvp geom=check guess=read scf(xqc,tight) integral(grid=u
 ltrafine) scrf(SMD, solvent=1,4-Dioxane) polar prop=efg volume
 ----------------------------------------------------------------------

 ---
 spe
 ---
 Structure from the checkpoint file:  "smiles_00034_conf_4.chk"
 Charge =  0 Multiplicity = 1

 SCF Done:  E(RM062X) =  -3152.81171346     A.U. after   11 cycles

 The electronic state is 1-A.
 Alpha  occ. eigenvalues -- -485.37391 -63.35870 -57.17814 -57.17580 -57.17574
 Alpha  occ. eigenvalues --  -19.63636 -19.63113 -10.64486 -10.60348 -10.58485
 Alpha  occ. eigenvalues --  -10.57580 -10.55875 -10.55513 -10.55420 -10.55246
 Alpha  occ. eigenvalues --  -10.54679 -10.52122 -10.52117  -9.02512  -6.84914
 Alpha  occ. eigenvalues --   -6.84048  -6.84028  -2.88291  -2.87977  -2.87953
 Alpha  occ. eigenvalues --   -2.87146  -2.87145  -1.19546  -1.13183  -0.98091
 Alpha  occ. eigenvalues --   -0.90381  -0.87780  -0.84819  -0.84504  -0.81544
 Alpha  occ. eigenvalues --   -0.76411  -0.71544  -0.69739  -0.68707  -0.65005
 Alpha  occ. eigenvalues --   -0.60317  -0.59032  -0.57121  -0.55930  -0.53667
 Alpha  occ. eigenvalues --   -0.53000  -0.51467  -0.49838  -0.49062  -0.47842
 Alpha  occ. eigenvalues --   -0.46840  -0.46125  -0.44853  -0.43938  -0.43258
 Alpha  occ. eigenvalues --   -0.42765  -0.41776  -0.40745  -0.40050  -0.37714
 Alpha  occ. eigenvalues --   -0.37306  -0.35356  -0.34887  -0.34057  -0.31483
 Alpha  occ. eigenvalues --   -0.29809
 Alpha virt. eigenvalues --    0.00493   0.01084   0.03753   0.07503   0.08607
 Alpha virt. eigenvalues --    0.09662   0.10074   0.11103   0.11945   0.12235
 Alpha virt. eigenvalues --    0.13015   0.13564   0.14443   0.14711   0.15603

 Mulliken charges:
               1
     1  C   -0.453886
     2  C   -0.104756
     3  O   -0.329779
     4  C    0.179842
     5  O   -0.326592
     6  C   -0.144642
     7  C   -0.416672
     8  C    0.050621
     9  C   -0.204399
    10  C   -0.138540
    11  C   -0.181060
    12  C    0.084427
    13  Br  -0.116773
    14  C   -0.259871
    15  H    0.150986
    16  H    0.151977
    17  H    0.162364
    18  H    0.134031
    19  H    0.143172
    20  H    0.146360
    21  H    0.154980
    22  H    0.155865
    23  H    0.147870
    24  H    0.145475
    25  H    0.145655
    26  H    0.175217
    27  H    0.165969
    28  H    0.178488
    29  H    0.203670
 Sum of Mulliken charges =  -0.00000

 Dipole moment (field-independent basis, Debye):
    X=              2.4910    Y=             -1.2657    Z=              0.4414  Tot=              2.8288
 Quadrupole moment (field-independent basis, Debye-Ang):
   XX=            -92.9287   YY=            -92.9617   ZZ=            -96.7296
   XY=              0.7219   XZ=             -3.2916   YZ=              0.0537

  Exact polarizability:     222.901     -10.022     180.579      -4.200     -14.714     131.893
 Approx polarizability:     216.491     -13.637     195.927      -3.641     -22.024     159.095

 Normal termination of Gaussian 16 at Tue Sep 17 11:29:45 2024.
 Gaussian 16:  ES64L-G16RevC.02  7-Dec-2021

 ----------------------------------------------------------------------
 #p M062X/def2tzvp geom=check guess=read scf(xqc,tight) integral(grid=u
 ltrafine) scrf(SMD, solvent=1,4-Dioxane) nmr=giao
 ----------------------------------------------------------------------

 ---
 spe
 ---
 Structure from the checkpoint file:  "smiles_00034_conf_4.chk"
 Charge =  0 Multiplicity = 1

                         Standard orientation:
 ---------------------------------------------------------------------
 Center     Atomic      Atomic             Coordinates (Angstroms)
 Number     Number       Type             X           Y           Z
 ---------------------------------------------------------------------
      1          6           0        4.854864    0.077299   -0.409642
      2          6           0        3.974826   -1.137434   -0.678716
      3          8           0        2.717613   -1.099238    0.001546
      4          6           0        1.722053   -0.324058   -0.610742
      5          8           0        1.896472    1.067482   -0.424348
      6          6           0        1.892957    1.500742    0.942763
      7          6           0        2.189213    2.988001    0.948911
      8          6           0        0.363645   -0.805416   -0.120791
      9          6           0        0.204328   -2.028861    0.531303
     10          6           0       -1.065848   -2.447567    0.930093
     11          6           0       -2.186368   -1.656612    0.682124
     12          6           0       -2.010177   -0.438706    0.028066
     13         35           0       -3.535617    0.664387   -0.315889
     14          6           0       -0.754063   -0.003663   -0.376417
     15          1           0        5.018577    0.198174    0.665335
     16          1           0        5.829928   -0.054676   -0.890873
     17          1           0        4.391231    0.987097   -0.794842
     18          1           0        3.800077   -1.254000   -1.758766
     19          1           0        4.462888   -2.049334   -0.321299
     20          1           0        1.780963   -0.441649   -1.703373
     21          1           0        0.916307    1.294119    1.398654
     22          1           0        2.648725    0.942357    1.506207
     23          1           0        1.437187    3.532604    0.370856
     24          1           0        2.182933    3.371502    1.973794
     25          1           0        3.170315    3.189942    0.509431
     26          1           0        1.077788   -2.638222    0.725488
     27          1           0       -1.187143   -3.397913    1.440776
     28          1           0       -3.176235   -1.973398    0.988338
     29          1           0       -0.632226    0.951550   -0.872913
 ---------------------------------------------------------------------

 SCF Done:  E(RM062X) =  -3152.81171346     A.U. after    1 cycles
