 Gaussian 16, Revision C.02,

 ----------------------------------------------------------------------
 #p B3LYP/6-31G(d,p) EmpiricalDispersion=GD3BJ opt freq scf(xqc,tight)
 integral(grid=ultrafine)
 ----------------------------------------------------------------------

 ----------------------------------
 opt-freq conformers_unique/conf_aa
 ----------------------------------
 Symbolic Z-matrix:
 Charge =  0 Multiplicity = 1

 SCF Done:  E(RB3LYP) =  -3150.41947619     A.U. after   14 cycles
 SCF Done:  E(RB3LYP) =  -3150.42087342     A.U. after   12 cycles
 SCF Done:  E(RB3LYP) =  -3150.42106257     A.U. after   11 cycles
 SCF Done:  E(RB3LYP) =  -3150.42124181     A.U. after   10 cycles
 SCF Done:  E(RB3LYP) =  -3150.42138319     A.U. after   11 cycles
 SCF Done:  E(RB3LYP) =  -3150.42147306     A.U. after   11 cycles
 SCF Done:  E(RB3LYP) =  -3150.42150043     A.U. after   12 cycles
 SCF Done:  E(RB3LYP) =  -3150.42158450     A.U. after   11 cycles
 SCF Done:  E(RB3LYP) =  -3150.42157071     A.U. after   11 cycles
 SCF Done:  E(RB3LYP) =  -3150.42206818     A.U. after   13 cycles
 SCF Done:  E(RB3LYP) =  -3150.42316813     A.U. after   11 cycles
 SCF Done:  E(RB3LYP) =  -3150.42328737     A.U. after   13 cycles
 SCF Done:  E(RB3LYP) =  -3150.42328845     A.U. after   10 cycles
 SCF Done:  E(RB3LYP) =  -3150.42329709     A.U. after    9 cycles
 SCF Done:  E(RB3LYP) =  -3150.42330213     A.U. after    8 cycles
 SCF Done:  E(RB3LYP) =  -3150.42330355     A.U. after    9 cycles
 SCF Done:  E(RB3LYP) =  -3150.42330357     A.U. after    6 cycles
 Optimization completed.
    -- Stationary point found.
 Normal termination of Gaussian 16 at Tue Sep 17 10:03:55 2024.

 ----------------------------------------------------------------------
 #P Geom=AllCheck Guess=TCheck SCRF=Check GenChk RB3LYP/6-31G(d,p) Freq
 ----------------------------------------------------------------------

 Structure from the checkpoint file:  "smiles_00034_conf_0.chk"
 ----------------------------------
 opt-freq conformers_unique/conf_aa
 ----------------------------------
 Charge =  0 Multiplicity = 1

 SCF Done:  E(RB3LYP) =  -3150.42330357     A.U. after    1 cycles

                      1                      2                      3
                      A                      A                      A
 Frequencies --     22.4720                35.3861                42.5527
 Red. masses --      4.4130                 2.4152                 2.7044
 Frc consts  --      0.0013                 0.0018                 0.0029
 IR Inten    --      0.0707                 0.0221                 0.3216

                      4                      5                      6
                      A                      A                      A
 Frequencies --     78.9324                97.2447               122.6415
 Red. masses --      4.5085                 3.1362                 2.4286
 Frc consts  --      0.0165                 0.0175                 0.0215
 IR Inten    --      0.3864                 0.2816                 1.2081

                      7                      8                      9
                      A                      A                      A
 Frequencies --    165.3234               184.8321               225.0236
 Red. masses --      4.8502                 3.4131                 2.5673
 Frc consts  --      0.0781                 0.0687                 0.0766
 IR Inten    --      1.8140                 3.1530                 0.6227

                     10                     11                     12
                      A                      A                      A
 Frequencies --    229.0217               251.4615               271.6281
 Red. masses --      2.7441                 1.3355                 1.9451
 Frc consts  --      0.0848                 0.0498                 0.0846
 IR Inten    --      0.6016                 0.0185                 0.5965

                     13                     14                     15
                      A                      A                      A
 Frequencies --    295.0487               320.6922               338.8767
 Red. masses --      4.2399                 4.0509                 2.8729
 Frc consts  --      0.2175                 0.2455                 0.1944
 IR Inten    --      4.2296                 3.0412                 3.5533

                     16                     17                     18
                      A                      A                      A
 Frequencies --    357.2895               449.1336               453.5951
 Red. masses --      3.7691                 3.1647                 3.3408
 Frc consts  --      0.2835                 0.3761                 0.4050
 IR Inten    --      4.1002                 1.2454                 2.8246

                     19                     20                     21
                      A                      A                      A
 Frequencies --    486.6672               532.3186               635.1645
 Red. masses --      4.8472                 4.9743                 5.1833
 Frc consts  --      0.6764                 0.8305                 1.2321
 IR Inten    --      8.0065                 0.9532                 8.0777

                     22                     23                     24
                      A                      A                      A
 Frequencies --    677.8778               700.3146               749.9705
 Red. masses --      6.4448                 3.1691                 3.5482
 Frc consts  --      1.7449                 0.9157                 1.1758
 IR Inten    --     18.0115                 9.8495                24.2119

                     25                     26                     27
                      A                      A                      A
 Frequencies --    802.2106               814.0843               824.2663
 Red. masses --      1.4323                 1.2072                 1.0963
 Frc consts  --      0.5431                 0.4714                 0.4389
 IR Inten    --     31.0074                 6.1060                 0.2958

                     28                     29                     30
                      A                      A                      A
 Frequencies --    853.2679               884.2260               914.7161
 Red. masses --      2.4327                 2.7014                 1.6674
 Frc consts  --      1.0435                 1.2444                 0.8220
 IR Inten    --      6.7466                 9.6152                 9.7744

                     31                     32                     33
                      A                      A                      A
 Frequencies --    936.9761               962.9493               993.6454
 Red. masses --      1.3453                 2.3180                 1.3100
 Frc consts  --      0.6958                 1.2664                 0.7620
 IR Inten    --      2.4879                 7.1836                 1.3525

                     34                     35                     36
                      A                      A                      A
 Frequencies --   1017.8135              1029.2764              1036.4696
 Red. masses --      5.3245                 2.8788                 3.6257
 Frc consts  --      3.2498                 1.7969                 2.2949
 IR Inten    --      1.5171                 1.7065                47.6679

                     37                     38                     39
                      A                      A                      A
 Frequencies --   1088.4412              1097.2597              1110.4926
 Red. masses --      4.6922                 2.1114                 2.8745
 Frc consts  --      3.2752                 1.4978                 2.0886
 IR Inten    --    178.5873                26.0725               119.7340

                     40                     41                     42
                      A                      A                      A
 Frequencies --   1124.5931              1141.3693              1153.8343
 Red. masses --      1.5775                 2.2659                 2.8262
 Frc consts  --      1.1755                 1.7392                 2.2169
 IR Inten    --      8.4078                54.0200               111.6950

                     43                     44                     45
                      A                      A                      A
 Frequencies --   1192.6430              1194.1770              1210.2022
 Red. masses --      1.4770                 1.1627                 1.9003
 Frc consts  --      1.2378                 0.9769                 1.6398
 IR Inten    --      2.2972                11.1289                53.7716

                     46                     47                     48
                      A                      A                      A
 Frequencies --   1223.9222              1301.1289              1306.7256
 Red. masses --      2.5410                 1.2062                 1.2921
 Frc consts  --      2.2427                 1.2032                 1.2999
 IR Inten    --    100.1592                 6.4551                14.7583

                     49                     50                     51
                      A                      A                      A
 Frequencies --   1331.6309              1354.5274              1377.0720
 Red. masses --      1.1573                 4.4456                 1.4254
 Frc consts  --      1.2091                 4.8057                 1.5926
 IR Inten    --     32.3152                 0.3815               102.4411

                     52                     53                     54
                      A                      A                      A
 Frequencies --   1395.8077              1406.3217              1414.3420
 Red. masses --      1.1839                 1.2290                 1.2577
 Frc consts  --      1.3590                 1.4321                 1.4823
 IR Inten    --      7.2477                 0.7320                 4.9265

                     55                     56                     57
                      A                      A                      A
 Frequencies --   1433.6579              1438.8603              1464.0600
 Red. masses --      1.3405                 1.3683                 2.6538
 Frc consts  --      1.6233                 1.6690                 3.3515
 IR Inten    --     13.6541                18.7343                28.3425

                     58                     59                     60
                      A                      A                      A
 Frequencies --   1498.1093              1499.7206              1506.6920
 Red. masses --      1.0418                 1.0426                 1.0695
 Frc consts  --      1.3776                 1.3816                 1.4305
 IR Inten    --      4.3677                 3.5785                 0.8816

                     61                     62                     63
                      A                      A                      A
 Frequencies --   1515.3577              1516.0893              1530.5941
 Red. masses --      2.4052                 1.0504                 1.0710
 Frc consts  --      3.2542                 1.4225                 1.4783
 IR Inten    --     15.4048                 1.1581                 7.3030

                     64                     65                     66
                      A                      A                      A
 Frequencies --   1545.7855              1628.9134              1653.8501
 Red. masses --      1.0872                 6.3614                 6.1737
 Frc consts  --      1.5306                 9.9449                 9.9492
 IR Inten    --      0.3561                30.6021                 9.2865

                     67                     68                     69
                      A                      A                      A
 Frequencies --   3003.7419              3009.1641              3033.8373
 Red. masses --      1.0804                 1.0715                 1.0597
 Frc consts  --      5.7430                 5.7168                 5.7466
 IR Inten    --      8.0721                84.3282                28.7255

                     70                     71                     72
                      A                      A                      A
 Frequencies --   3051.9448              3052.8217              3078.9446
 Red. masses --      1.0377                 1.0352                 1.1034
 Frc consts  --      5.6949                 5.6841                 6.1627
 IR Inten    --     15.7964                23.6838                22.1013

                     73                     74                     75
                      A                      A                      A
 Frequencies --   3091.5031              3120.8478              3128.2158
 Red. masses --      1.0962                 1.1014                 1.1022
 Frc consts  --      6.1728                 6.3203                 6.3546
 IR Inten    --     28.6861                35.5624                26.4617

                     76                     77                     78
                      A                      A                      A
 Frequencies --   3132.1239              3155.5346              3191.9138
 Red. masses --      1.1038                 1.1019                 1.0873
 Frc consts  --      6.3801                 6.4643                 6.5266
 IR Inten    --     34.3223                17.6720                 7.0716

                     79                     80                     81
                      A                      A                      A
 Frequencies --   3211.0332              3223.8186              3249.1209
 Red. masses --      1.0928                 1.0949                 1.0912
 Frc consts  --      6.6388                 6.7043                 6.7870
 IR Inten    --      6.3752                 4.8952                 1.0236

 - Thermochemistry -
 -------------------
 Temperature   298.150 Kelvin.  Pressure   1.00000 Atm.
 Atom     1 has atomic number  6 and mass  12.00000

 Molecular mass:   258.02554 amu.
 Principal axes and moments of inertia in atomic units:
                           1         2         3
     Eigenvalues --  2093.510507588.001918828.59260
           X            0.99947  -0.02800   0.01638
           Y            0.02751   0.99918   0.02973
           Z           -0.01720  -0.02927   0.99942
 This molecule is an asymmetric top.
 Rotational symmetry number  1.
 Warning -- assumption of classical behavior for rotation
           may cause significant error
 Rotational temperatures (Kelvin)      0.04137     0.01141     0.00981
 Rotational constants (GHZ):           0.86206     0.23784     0.20442
 Zero-point vibrational energy     635122.1 (Joules/Mol)
                                  151.79782 (Kcal/Mol)
 Warning -- explicit consideration of  20 degrees of freedom as
           vibrations may cause significant error
 Vibrational temperatures:     32.33    50.91    61.22   113.57   139.91
          (Kelvin)            176.45   237.86   265.93   323.76   329.51
                              361.80   390.81   424.51   461.40   487.57
                              514.06   646.20   652.62   700.21   765.89
                              913.86   975.31  1007.60  1079.04  1154.20
                             1171.29  1185.94  1227.66  1272.20  1316.07
                             1348.10  1385.47  1429.63  1464.41  1480.90
                             1491.25  1566.02  1578.71  1597.75  1618.04
                             1642.18  1660.11  1715.95  1718.15  1741.21
                             1760.95  1872.03  1880.09  1915.92  1948.86
                             1981.30  2008.26  2023.38  2034.92  2062.71
                             2070.20  2106.46  2155.45  2157.76  2167.79
                             2180.26  2181.31  2202.18  2224.04  2343.64
                             2379.52  4321.71  4329.52  4365.02  4391.07
                             4392.33  4429.91  4447.98  4490.20  4500.80
                             4506.43  4540.11  4592.45  4619.96  4638.36
                             4674.76

 Zero-point correction=                           0.241905 (Hartree/Particle)
 Thermal correction to Energy=                    0.256673
 Thermal correction to Enthalpy=                  0.257617
 Thermal correction to Gibbs Free Energy=         0.197310
 Sum of electronic and zero-point Energies=          -3150.181398
 Sum of electronic and thermal Energies=             -3150.166631
 Sum of electronic and thermal Enthalpies=           -3150.165687
 Sum of electronic and thermal Free Energies=        -3150.225994

                     E (Thermal)             CV                S
                      KCal/Mol        Cal/Mol-Kelvin    Cal/Mol-Kelvin
 Total                  161.065             53.613            126.927
 Electronic               0.000              0.000              0.000
 Translational            0.889              2.981             42.543
 Rotational               0.889              2.981             33.305
 Vibrational            159.287             47.651             51.079
 Vibration     1          0.593              1.985              6.403
 Vibration     2          0.594              1.982              5.502
 Vibration     3          0.595              1.980              5.137
 Vibration     4          0.600              1.963              3.917
 Vibration     5          0.603              1.951              3.509
 Vibration     6          0.610              1.930              3.058
 Vibration     7          0.624              1.885              2.488
 Vibration     8          0.631              1.861              2.279
 Vibration     9          0.650              1.803              1.918
 Vibration    10          0.652              1.797              1.887
 Vibration    11          0.663              1.760              1.720
 Vibration    12          0.675              1.726              1.586
 Vibration    13          0.689              1.683              1.445
 Vibration    14          0.706              1.634              1.307
 Vibration    15          0.719              1.598              1.217
 Vibration    16          0.732              1.560              1.134
 Vibration    17          0.808              1.363              0.798
 Vibration    18          0.812              1.353              0.785
 Vibration    19          0.843              1.280              0.692
 Vibration    20          0.887              1.179              0.582

 Optimization completed.
    -- Stationary point found.
 Normal termination of Gaussian 16 at Tue Sep 17 10:06:54 2024.

 ----------------------------------------------------------------------
 #p M062X/def2tzvp geom=check guess=read scf(xqc,tight) integral(grid=u
 ltrafine) scrf(SMD, solvent=1,4-Dioxane) polar prop=efg volume
 ----------------------------------------------------------------------

 ---
 spe
 ---
 Structure from the checkpoint file:  "smiles_00034_conf_0.chk"
 Charge =  0 Multiplicity = 1

 SCF Done:  E(RM062X) =  -3152.81184812     A.U. after   11 cycles

 The electronic state is 1-A.
 Alpha  occ. eigenvalues -- -485.37292 -63.35772 -57.17715 -57.17482 -57.17475
 Alpha  occ. eigenvalues --  -19.63618 -19.63115 -10.64478 -10.60267 -10.58445
 Alpha  occ. eigenvalues --  -10.57594 -10.55867 -10.55507 -10.55310 -10.55251
 Alpha  occ. eigenvalues --  -10.54848 -10.52181 -10.52092  -9.02414  -6.84815
 Alpha  occ. eigenvalues --   -6.83950  -6.83929  -2.88192  -2.87879  -2.87854
 Alpha  occ. eigenvalues --   -2.87048  -2.87048  -1.19548  -1.13177  -0.98061
 Alpha  occ. eigenvalues --   -0.90345  -0.87830  -0.84925  -0.84226  -0.81637
 Alpha  occ. eigenvalues --   -0.76413  -0.71529  -0.70191  -0.67967  -0.65280
 Alpha  occ. eigenvalues --   -0.60265  -0.59062  -0.57065  -0.55984  -0.53518
 Alpha  occ. eigenvalues --   -0.52990  -0.51931  -0.49387  -0.49200  -0.47936
 Alpha  occ. eigenvalues --   -0.46805  -0.46087  -0.44818  -0.43907  -0.43234
 Alpha  occ. eigenvalues --   -0.42772  -0.41676  -0.40863  -0.40132  -0.37746
 Alpha  occ. eigenvalues --   -0.37129  -0.35257  -0.34947  -0.33978  -0.31647
 Alpha  occ. eigenvalues --   -0.29667
 Alpha virt. eigenvalues --    0.00516   0.01087   0.03865   0.07457   0.08654
 Alpha virt. eigenvalues --    0.09327   0.10589   0.10964   0.11978   0.12440
 Alpha virt. eigenvalues --    0.13041   0.13251   0.14530   0.14656   0.15648

 Mulliken charges:
               1
     1  C   -0.452519
     2  C   -0.105950
     3  O   -0.329405
     4  C    0.180940
     5  O   -0.325386
     6  C   -0.144510
     7  C   -0.417233
     8  C    0.038547
     9  C   -0.241237
    10  C   -0.130983
    11  C   -0.179242
    12  C    0.068532
    13  Br  -0.117945
    14  C   -0.203960
    15  H    0.151961
    16  H    0.161020
    17  H    0.151077
    18  H    0.133874
    19  H    0.144243
    20  H    0.146282
    21  H    0.152147
    22  H    0.157991
    23  H    0.146148
    24  H    0.146155
    25  H    0.145832
    26  H    0.185960
    27  H    0.166418
    28  H    0.178623
    29  H    0.192619
 Sum of Mulliken charges =  -0.00000

 Dipole moment (field-independent basis, Debye):
    X=              2.2284    Y=              0.7094    Z=             -0.5008  Tot=              2.3916
 Quadrupole moment (field-independent basis, Debye-Ang):
   XX=            -98.1297   YY=            -88.6641   ZZ=            -96.9959
   XY=             -7.1362   XZ=              1.1793   YZ=              0.7601

  Exact polarizability:     219.394       3.757     185.614      -8.006      -9.841     130.878
 Approx polarizability:     214.339       6.880     203.466     -14.784     -14.596     154.050

 Normal termination of Gaussian 16 at Tue Sep 17 11:31:08 2024.
 Gaussian 16:  ES64L-G16RevC.02  7-Dec-2021

 ----------------------------------------------------------------------
 #p M062X/def2tzvp geom=check guess=read scf(xqc,tight) integral(grid=u
 ltrafine) scrf(SMD, solvent=1,4-Dioxane) nmr=giao
 ----------------------------------------------------------------------

 ---
 spe
 ---
 Structure from the checkpoint file:  "smiles_00034_conf_0.chk"
 Charge =  0 Multiplicity = 1

                         Standard orientation:
 ---------------------------------------------------------------------
 Center     Atomic      Atomic             Coordinates (Angstroms)
 Number     Number       Type             X           Y           Z
 ---------------------------------------------------------------------
      1          6           0        4.072431   -2.050916    0.004362
      2          6           0        2.711840   -2.287484   -0.640061
      3          8           0        1.696988   -1.388326   -0.185990
      4          6           0        1.689117   -0.125415   -0.794431
      5          8           0        2.706409    0.735616   -0.318261
      6          6           0        2.645187    1.023876    1.085049
      7          6           0        3.877936    1.833792    1.437806
      8          6           0        0.303144    0.483065   -0.636497
      9          6           0        0.118936    1.834604   -0.948113
     10          6           0       -1.144394    2.411642   -0.847472
     11          6           0       -2.239621    1.650496   -0.435273
     12          6           0       -2.039137    0.307964   -0.129206
     13         35           0       -3.528969   -0.749699    0.440724
     14          6           0       -0.784305   -0.288152   -0.224952
     15          1           0        4.778545   -2.822373   -0.321212
     16          1           0        4.468118   -1.071486   -0.269889
     17          1           0        3.991072   -2.100935    1.094258
     18          1           0        2.788792   -2.224850   -1.735832
     19          1           0        2.338723   -3.285259   -0.390090
     20          1           0        1.925269   -0.227869   -1.864362
     21          1           0        1.729418    1.584689    1.311929
     22          1           0        2.610810    0.086380    1.650990
     23          1           0        4.788660    1.264268    1.231329
     24          1           0        3.912670    2.757094    0.852317
     25          1           0        3.867408    2.097232    2.499904
     26          1           0        0.974656    2.426139   -1.255868
     27          1           0       -1.283890    3.460979   -1.088107
     28          1           0       -3.227208    2.088452   -0.352807
     29          1           0       -0.643108   -1.332142    0.018832
 ---------------------------------------------------------------------

 SCF Done:  E(RM062X) =  -3152.81184812     A.U. after    1 cycles
