 Gaussian 16, Revision C.02,

 ----------------------------------------------------------------------
 #p B3LYP/gen pseudo=read EmpiricalDispersion=GD3BJ opt freq scf(xqc,ti
 ght) integral(grid=ultrafine)
 ----------------------------------------------------------------------

 ----------------------------------
 opt-freq conformers_unique/conf_ac
 ----------------------------------
 Symbolic Z-matrix:
 Charge =  0 Multiplicity = 1

 SCF Done:  E(RB3LYP) =  -917.127173506     A.U. after   13 cycles
 SCF Done:  E(RB3LYP) =  -917.128604698     A.U. after   12 cycles
 SCF Done:  E(RB3LYP) =  -917.128846149     A.U. after   10 cycles
 SCF Done:  E(RB3LYP) =  -917.128862867     A.U. after   10 cycles
 SCF Done:  E(RB3LYP) =  -917.128867648     A.U. after    9 cycles
 SCF Done:  E(RB3LYP) =  -917.128879997     A.U. after   11 cycles
 SCF Done:  E(RB3LYP) =  -917.128889488     A.U. after   11 cycles
 SCF Done:  E(RB3LYP) =  -917.128901464     A.U. after   11 cycles
 SCF Done:  E(RB3LYP) =  -917.128905915     A.U. after    9 cycles
 SCF Done:  E(RB3LYP) =  -917.128906505     A.U. after    7 cycles
 SCF Done:  E(RB3LYP) =  -917.128966745     A.U. after   13 cycles
 SCF Done:  E(RB3LYP) =  -917.129027778     A.U. after   11 cycles
 SCF Done:  E(RB3LYP) =  -917.129040208     A.U. after   11 cycles
 SCF Done:  E(RB3LYP) =  -917.129041367     A.U. after    8 cycles
 SCF Done:  E(RB3LYP) =  -917.129041610     A.U. after    9 cycles
 SCF Done:  E(RB3LYP) =  -917.129041673     A.U. after    7 cycles
 SCF Done:  E(RB3LYP) =  -917.129041690     A.U. after    7 cycles
 Optimization completed.
    -- Stationary point found.
 Normal termination of Gaussian 16 at Tue Sep 17 09:56:00 2024.

 ------------------------------------------------------------------
 #P Geom=AllCheck Guess=TCheck SCRF=Check GenChk RB3LYP/ChkBas Freq
 ------------------------------------------------------------------

 Structure from the checkpoint file:  "smiles_00015_conf_2.chk"
 ----------------------------------
 opt-freq conformers_unique/conf_ac
 ----------------------------------
 Charge =  0 Multiplicity = 1

 SCF Done:  E(RB3LYP) =  -917.129041690     A.U. after    1 cycles

                      1                      2                      3
                      A                      A                      A
 Frequencies --     13.3500                15.6899                78.2171
 Red. masses --     19.4421                18.8845                13.2274
 Frc consts  --      0.0020                 0.0027                 0.0477
 IR Inten    --      0.0114                 0.0288                 0.7816

                      4                      5                      6
                      A                      A                      A
 Frequencies --     99.3547               105.8197               145.2642
 Red. masses --     18.8451                20.2459                 7.5507
 Frc consts  --      0.1096                 0.1336                 0.0939
 IR Inten    --      0.0741                 0.7716                 0.0056

                      7                      8                      9
                      A                      A                      A
 Frequencies --    167.6805               213.1657               259.5465
 Red. masses --      5.1103                21.1567                11.9177
 Frc consts  --      0.0847                 0.5664                 0.4730
 IR Inten    --      0.2571                 0.2744                 1.0775

                     10                     11                     12
                      A                      A                      A
 Frequencies --    287.0342               311.6219               341.3871
 Red. masses --     12.9863                 5.6965                 8.2490
 Frc consts  --      0.6304                 0.3259                 0.5664
 IR Inten    --      1.2342                 0.0014                 1.1255

                     13                     14                     15
                      A                      A                      A
 Frequencies --    370.6759               408.6740               448.6279
 Red. masses --      8.1699                10.7780                 8.6460
 Frc consts  --      0.6614                 1.0606                 1.0253
 IR Inten    --      3.6793                 5.2623                 3.1550

                     16                     17                     18
                      A                      A                      A
 Frequencies --    497.0838               499.6066               566.5911
 Red. masses --     12.1000                 9.0478                15.4195
 Frc consts  --      1.7616                 1.3306                 2.9165
 IR Inten    --      0.0984                 4.8630                 0.0009

                     19                     20                     21
                      A                      A                      A
 Frequencies --    586.1001               603.9499               671.6347
 Red. masses --      8.2534                 8.9664                 7.6797
 Frc consts  --      1.6704                 1.9269                 2.0411
 IR Inten    --      1.2143                 0.6775                 1.8396

                     22                     23                     24
                      A                      A                      A
 Frequencies --    680.4325               692.3867               711.9727
 Red. masses --     13.1414                12.1685                 2.6399
 Frc consts  --      3.5848                 3.4371                 0.7884
 IR Inten    --     37.7929                56.2969                14.5206

                     25                     26                     27
                      A                      A                      A
 Frequencies --    779.1754               859.3489               902.3103
 Red. masses --     13.2166                11.9231                 1.5153
 Frc consts  --      4.7276                 5.1878                 0.7269
 IR Inten    --     29.4194                17.0014                36.1622

                     28                     29                     30
                      A                      A                      A
 Frequencies --    932.2406               936.7183              1016.7175
 Red. masses --      1.3610                 1.3813                 6.4379
 Frc consts  --      0.6969                 0.7141                 3.9210
 IR Inten    --      3.9843                 0.0162                 1.5710

                     31                     32                     33
                      A                      A                      A
 Frequencies --   1113.9048              1126.2670              1134.5735
 Red. masses --     11.9125                 1.8514                 1.8248
 Frc consts  --      8.7086                 1.3837                 1.3840
 IR Inten    --     21.4670                22.8679                 2.1288

                     34                     35                     36
                      A                      A                      A
 Frequencies --   1198.5965              1200.7602              1221.6698
 Red. masses --     12.9647                12.6566                 8.7352
 Frc consts  --     10.9738                10.7517                 7.6812
 IR Inten    --      0.3996               505.9921                97.5124

                     37                     38                     39
                      A                      A                      A
 Frequencies --   1229.5487              1295.5746              1300.6443
 Red. masses --      5.7544                 3.6487                 1.3783
 Frc consts  --      5.1256                 3.6084                 1.3737
 IR Inten    --    242.4058               583.8968                19.8603

                     40                     41                     42
                      A                      A                      A
 Frequencies --   1362.0044              1366.8679              1482.3142
 Red. masses --      5.0888                 5.3414                 4.1792
 Frc consts  --      5.5618                 5.8797                 5.4103
 IR Inten    --      3.0443               369.1856                 2.8825

                     43                     44                     45
                      A                      A                      A
 Frequencies --   1490.1046              1636.7219              1665.8014
 Red. masses --      3.8684                 6.7646                 6.1748
 Frc consts  --      5.0607                10.6768                10.0953
 IR Inten    --      4.6567                11.7695                 7.5341

                     46                     47                     48
                      A                      A                      A
 Frequencies --   3237.8226              3237.9611              3242.1715
 Red. masses --      1.0917                 1.0926                 1.0917
 Frc consts  --      6.7433                 6.7494                 6.7612
 IR Inten    --      0.7130                 1.4245                 0.9224

 - Thermochemistry -
 -------------------
 Temperature   298.150 Kelvin.  Pressure   1.00000 Atm.
 Atom     1 has atomic number  9 and mass  18.99840

 Molecular mass:   339.91429 amu.
 Principal axes and moments of inertia in atomic units:
                           1         2         3
     Eigenvalues --  4731.963857295.30807**********
           X            1.00000   0.00000   0.00000
           Y           -0.00000   1.00000  -0.00038
           Z           -0.00000   0.00038   1.00000
 This molecule is an asymmetric top.
 Rotational symmetry number  1.
 Warning -- assumption of classical behavior for rotation
           may cause significant error
 Rotational temperatures (Kelvin)      0.01830     0.01187     0.00761
 Rotational constants (GHZ):           0.38139     0.24738     0.15848
 Zero-point vibrational energy     261657.3 (Joules/Mol)
                                   62.53760 (Kcal/Mol)
 Warning -- explicit consideration of  20 degrees of freedom as
           vibrations may cause significant error
 Vibrational temperatures:     19.21    22.57   112.54   142.95   152.25
          (Kelvin)            209.00   241.25   306.70   373.43   412.98
                              448.35   491.18   533.32   587.99   645.48
                              715.19   718.82   815.20   843.27   868.95
                              966.33   978.99   996.19  1024.37  1121.06
                             1236.41  1298.22  1341.29  1347.73  1462.83
                             1602.66  1620.45  1632.40  1724.51  1727.63
                             1757.71  1769.05  1864.04  1871.34  1959.62
                             1966.62  2132.72  2143.93  2354.88  2396.72
                             4658.50  4658.70  4664.76

 Zero-point correction=                           0.099660 (Hartree/Particle)
 Thermal correction to Energy=                    0.112891
 Thermal correction to Enthalpy=                  0.113835
 Thermal correction to Gibbs Free Energy=         0.054881
 Sum of electronic and zero-point Energies=           -917.029382
 Sum of electronic and thermal Energies=              -917.016151
 Sum of electronic and thermal Enthalpies=            -917.015207
 Sum of electronic and thermal Free Energies=         -917.074161

                     E (Thermal)             CV                S
                      KCal/Mol        Cal/Mol-Kelvin    Cal/Mol-Kelvin
 Total                   70.840             46.894            124.079
 Electronic               0.000              0.000              0.000
 Translational            0.889              2.981             43.365
 Rotational               0.889              2.981             34.329
 Vibrational             69.063             40.932             46.385
 Vibration     1          0.593              1.987              7.437
 Vibration     2          0.593              1.986              7.116
 Vibration     3          0.600              1.964              3.935
 Vibration     4          0.604              1.950              3.467
 Vibration     5          0.605              1.945              3.344
 Vibration     6          0.617              1.908              2.733
 Vibration     7          0.624              1.882              2.461
 Vibration     8          0.644              1.821              2.016
 Vibration     9          0.668              1.747              1.665
 Vibration    10          0.684              1.698              1.491
 Vibration    11          0.700              1.652              1.354
 Vibration    12          0.721              1.593              1.206
 Vibration    13          0.743              1.532              1.077
 Vibration    14          0.773              1.451              0.931
 Vibration    15          0.808              1.364              0.800
 Vibration    16          0.853              1.256              0.665
 Vibration    17          0.855              1.251              0.659
 Vibration    18          0.923              1.104              0.511
 Vibration    19          0.943              1.061              0.474
 Vibration    20          0.962              1.023              0.443

 Optimization completed.
    -- Stationary point found.
 Normal termination of Gaussian 16 at Tue Sep 17 09:57:35 2024.

 ----------------------------------------------------------------------
 #p M062X/def2tzvp geom=check guess=read scf(xqc,tight) integral(grid=u
 ltrafine) scrf(SMD, solvent=1,4-Dioxane) polar prop=efg volume
 ----------------------------------------------------------------------

 ---
 spe
 ---
 Structure from the checkpoint file:  "smiles_00015_conf_2.chk"
 Charge =  0 Multiplicity = 1

 SCF Done:  E(RM062X) =  -1203.43600907     A.U. after   22 cycles

 The electronic state is 1-A.
 Alpha  occ. eigenvalues --  -25.29257 -25.29256 -25.29243 -25.29243 -25.28942
 Alpha  occ. eigenvalues --  -25.28941 -10.81434 -10.81434 -10.62493 -10.59958
 Alpha  occ. eigenvalues --  -10.59957 -10.59147 -10.59145 -10.59012  -7.12050
 Alpha  occ. eigenvalues --   -5.11434  -5.10332  -5.10323  -2.08259  -2.07806
 Alpha  occ. eigenvalues --   -2.07804  -2.06885  -2.06883  -1.47345  -1.47342
 Alpha  occ. eigenvalues --   -1.38551  -1.38549  -1.38221  -1.38220  -1.01791
 Alpha  occ. eigenvalues --   -0.92967  -0.91077  -0.83316  -0.82359  -0.80012
 Alpha  occ. eigenvalues --   -0.75037  -0.74072  -0.70410  -0.70196  -0.70192
 Alpha  occ. eigenvalues --   -0.70142  -0.66803  -0.63778  -0.61121  -0.59321
 Alpha  occ. eigenvalues --   -0.58661  -0.58389  -0.58181  -0.56718  -0.54735
 Alpha  occ. eigenvalues --   -0.54569  -0.54543  -0.53602  -0.52718  -0.52690
 Alpha  occ. eigenvalues --   -0.51326  -0.50224  -0.49868  -0.48613  -0.45095
 Alpha  occ. eigenvalues --   -0.41553  -0.38061  -0.35555  -0.33706  -0.31452
 Alpha virt. eigenvalues --   -0.03315  -0.02528  -0.02021   0.08828   0.11018
 Alpha virt. eigenvalues --    0.11100   0.11888   0.13116   0.14270   0.15131
 Alpha virt. eigenvalues --    0.16156   0.16528   0.17430   0.18652   0.18819

 Mulliken charges:
               1
     1  F   -0.176497
     2  C    0.509753
     3  F   -0.179885
     4  F   -0.180791
     5  C    0.027210
     6  C   -0.229513
     7  C    0.102606
     8  I   -0.052051
     9  C   -0.229509
    10  C    0.027207
    11  C    0.509755
    12  F   -0.179886
    13  F   -0.180802
    14  F   -0.176475
    15  C   -0.224174
    16  H    0.211897
    17  H    0.211899
    18  H    0.209255
 Sum of Mulliken charges =  -0.00000

 Dipole moment (field-independent basis, Debye):
    X=              1.5951    Y=              0.0001    Z=              0.0002  Tot=              1.5951
 Quadrupole moment (field-independent basis, Debye-Ang):
   XX=           -103.6519   YY=           -111.1873   ZZ=           -106.1572
   XY=             -0.0007   XZ=             -0.0005   YZ=             -0.4536

  Exact polarizability:     191.589      -0.000     146.076       0.000      -0.892      87.828
 Approx polarizability:     199.995      -0.000     164.230       0.000      -1.488     111.402

 1\1\GINC-HPC-52-06\SP\RM062X\def2TZVP\C8H3F6I1\MANTIND\17-Sep-2024\0\\
 #p M062X/def2tzvp geom=check guess=read scf(xqc,tight) integral(grid=u
 ltrafine) scrf(SMD, solvent=1,4-Dioxane) polar prop=efg volume\\spe\\0
 ,1\F,0,2.4884041321,2.9136423938,-0.901358289\C,0,2.0565010753,2.50970
 82977,0.3130107714\F,0,3.14151101,2.4052921779,1.1076281199\F,0,1.2758
 460501,3.4938142474,0.8057126238\C,0,1.3106623661,1.2037913193,0.21941
 1314\C,0,-0.0639669181,1.2162074613,-0.0260998864\C,0,-0.734515415,0.0
 04289733,-0.1728683685\I,0,-2.8343939654,0.0063648302,-0.5506559221\C,

 Normal termination of Gaussian 16 at Tue Sep 17 11:34:43 2024.
 Gaussian 16:  ES64L-G16RevC.02  7-Dec-2021

 ----------------------------------------------------------------------
 #p M062X/def2tzvp geom=check guess=read scf(xqc,tight) integral(grid=u
 ltrafine) scrf(SMD, solvent=1,4-Dioxane) nmr=giao
 ----------------------------------------------------------------------

 ---
 spe
 ---
 Structure from the checkpoint file:  "smiles_00015_conf_2.chk"
 Charge =  0 Multiplicity = 1

                         Standard orientation:
 ---------------------------------------------------------------------
 Center     Atomic      Atomic             Coordinates (Angstroms)
 Number     Number       Type             X           Y           Z
 ---------------------------------------------------------------------
      1          9           0       -2.147362   -2.921575   -1.266392
      2          6           0       -1.937689   -2.508193    0.002288
      3          9           0       -3.146351   -2.400653    0.591471
      4          9           0       -1.255657   -3.487080    0.632569
      5          6           0       -1.188323   -1.201297    0.032715
      6          6           0        0.208069   -1.212352    0.034555
      7          6           0        0.892840    0.000008    0.000009
      8         53           0        3.026433   -0.000009   -0.000005
      9          6           0        0.208063    1.212352   -0.034537
     10          6           0       -1.188333    1.201290   -0.032715
     11          6           0       -1.937696    2.508198   -0.002267
     12          9           0       -3.146334    2.400724   -0.591525
     13          9           0       -1.255589    3.487072   -0.632508
     14          9           0       -2.147336    2.921561    1.266382
     15          6           0       -1.893541   -0.000003   -0.000005
     16          1           0        0.741345   -2.153996    0.067668
     17          1           0        0.741310    2.154015   -0.067634
     18          1           0       -2.976259   -0.000012   -0.000018
 ---------------------------------------------------------------------

 SCF Done:  E(RM062X) =  -1203.43600907     A.U. after    1 cycles
