 Gaussian 16, Revision C.02,

 ----------------------------------------------------------------------
 #p B3LYP/6-31G(d,p) EmpiricalDispersion=GD3BJ opt freq scf(xqc,tight)
 integral(grid=ultrafine)
 ----------------------------------------------------------------------

 ----------------------------------
 opt-freq conformers_unique/conf_aa
 ----------------------------------
 Symbolic Z-matrix:
 Charge =  0 Multiplicity = 1

 SCF Done:  E(RB3LYP) =  -3342.17748264     A.U. after   15 cycles
 SCF Done:  E(RB3LYP) =  -3342.17943377     A.U. after   12 cycles
 SCF Done:  E(RB3LYP) =  -3342.17963643     A.U. after   11 cycles
 SCF Done:  E(RB3LYP) =  -3342.17965492     A.U. after    9 cycles
 SCF Done:  E(RB3LYP) =  -3342.17965681     A.U. after    8 cycles
 Optimization completed.
    -- Stationary point found.
 Normal termination of Gaussian 16 at Tue Sep 17 09:50:18 2024.

 ----------------------------------------------------------------------
 #P Geom=AllCheck Guess=TCheck SCRF=Check GenChk RB3LYP/6-31G(d,p) Freq
 ----------------------------------------------------------------------

 Structure from the checkpoint file:  "smiles_00106_conf_0.chk"
 ----------------------------------
 opt-freq conformers_unique/conf_aa
 ----------------------------------
 Charge =  0 Multiplicity = 1

 SCF Done:  E(RB3LYP) =  -3342.17965681     A.U. after    1 cycles
 ******    1 imaginary frequencies (negative Signs) ******

                      1                      2                      3
                      A                      A                      A
 Frequencies --    -20.5231                43.1841               114.2935
 Red. masses --     11.7953                15.2795                15.6396
 Frc consts  --      0.0029                 0.0168                 0.1204
 IR Inten    --      0.4575                 0.0209                 0.3679

                      4                      5                      6
                      A                      A                      A
 Frequencies --    132.5359               174.0861               194.2661
 Red. masses --      9.3275                 4.5303                14.7175
 Frc consts  --      0.0965                 0.0809                 0.3272
 IR Inten    --      0.0492                 0.2346                 0.1433

                      7                      8                      9
                      A                      A                      A
 Frequencies --    227.3300               259.4745               357.6523
 Red. masses --     14.3357                10.6631                12.6086
 Frc consts  --      0.4365                 0.4230                 0.9503
 IR Inten    --      0.1874                 3.7841                13.9635

                     10                     11                     12
                      A                      A                      A
 Frequencies --    362.5373               403.8367               430.5472
 Red. masses --     10.8250                10.8367                 5.3581
 Frc consts  --      0.8383                 1.0413                 0.5852
 IR Inten    --      0.2521                 1.5801                 2.4096

                     13                     14                     15
                      A                      A                      A
 Frequencies --    481.0660               507.6201               519.5122
 Red. masses --      7.3818                 5.0003                 8.0047
 Frc consts  --      1.0065                 0.7591                 1.2729
 IR Inten    --     10.7771                 4.2405                 1.8629

                     16                     17                     18
                      A                      A                      A
 Frequencies --    563.2540               585.4821               607.6433
 Red. masses --      9.3279                10.1391                 5.0475
 Frc consts  --      1.7436                 2.0478                 1.0981
 IR Inten    --      0.4061                 1.0831                 6.9810

                     19                     20                     21
                      A                      A                      A
 Frequencies --    630.4249               649.4210               731.6129
 Red. masses --     10.6069                12.3155                 4.9589
 Frc consts  --      2.4837                 3.0602                 1.5639
 IR Inten    --      0.3431                 2.0611                 2.8215

                     22                     23                     24
                      A                      A                      A
 Frequencies --    746.5047               821.5076               830.4435
 Red. masses --     14.7007                 7.5488                 6.3428
 Frc consts  --      4.8267                 3.0016                 2.5772
 IR Inten    --     21.5484                17.2565                 2.5959

                     25                     26                     27
                      A                      A                      A
 Frequencies --    924.7431               932.1927               949.0352
 Red. masses --      1.5098                 8.5556                 1.4894
 Frc consts  --      0.7607                 4.3804                 0.7904
 IR Inten    --      2.3778                89.7741                20.7056

                     28                     29                     30
                      A                      A                      A
 Frequencies --    972.0718               986.3833              1090.6148
 Red. masses --      1.4079                 7.5360                 2.2194
 Frc consts  --      0.7838                 4.3200                 1.5554
 IR Inten    --      0.0007                15.1120                59.0981

                     31                     32                     33
                      A                      A                      A
 Frequencies --   1127.0117              1185.7878              1214.4336
 Red. masses --      4.4398                13.0702                 4.1711
 Frc consts  --      3.3225                10.8279                 3.6245
 IR Inten    --    172.9740               254.7094                39.0623

                     34                     35                     36
                      A                      A                      A
 Frequencies --   1243.0937              1250.5574              1308.3824
 Red. masses --      4.4704                 5.2539                 2.2862
 Frc consts  --      4.0701                 4.8410                 2.3059
 IR Inten    --    126.5917               148.7890                55.5527

                     37                     38                     39
                      A                      A                      A
 Frequencies --   1365.6566              1367.1314              1396.7650
 Red. masses --      5.4965                 2.4865                 2.4716
 Frc consts  --      6.0398                 2.7382                 2.8410
 IR Inten    --     57.1677                68.7440                16.9347

                     40                     41                     42
                      A                      A                      A
 Frequencies --   1443.7459              1498.8293              1506.6211
 Red. masses --      7.1301                 3.9846                 4.6839
 Frc consts  --      8.7564                 5.2740                 6.2642
 IR Inten    --     43.9525                84.9425                21.0371

                     43                     44                     45
                      A                      A                      A
 Frequencies --   1592.1092              1622.5302              1654.6304
 Red. masses --      7.9121                 8.3036                 7.7163
 Frc consts  --     11.8165                12.8796                12.4469
 IR Inten    --      1.6798                22.2779                 2.0687

                     46                     47                     48
                      A                      A                      A
 Frequencies --   3184.8056              3189.7725              3233.6578
 Red. masses --      1.0917                 1.0921                 1.0937
 Frc consts  --      6.5244                 6.5471                 6.7379
 IR Inten    --      5.4220                 6.9917                 0.7725

 - Thermochemistry -
 -------------------
 Temperature   298.150 Kelvin.  Pressure   1.00000 Atm.
 Atom     1 has atomic number  9 and mass  18.99840

 Molecular mass:   276.94624 amu.
 Principal axes and moments of inertia in atomic units:
                           1         2         3
     Eigenvalues --   983.74050********************
           X            0.99999  -0.00505   0.00000
           Y            0.00505   0.99999   0.00001
           Z           -0.00000  -0.00001   1.00000
 This molecule is an asymmetric top.
 Rotational symmetry number  1.
 Warning -- assumption of classical behavior for rotation
           may cause significant error
 Rotational temperatures (Kelvin)      0.08805     0.00781     0.00737
 Rotational constants (GHZ):           1.83457     0.16284     0.15364
    1 imaginary frequencies ignored.
 Zero-point vibrational energy     278818.4 (Joules/Mol)
                                   66.63920 (Kcal/Mol)
 Warning -- explicit consideration of  17 degrees of freedom as
           vibrations may cause significant error
 Vibrational temperatures:     62.13   164.44   190.69   250.47   279.51
          (Kelvin)            327.08   373.33   514.58   521.61   581.03
                              619.46   692.15   730.35   747.46   810.40
                              842.38   874.26   907.04   934.37  1052.63
                             1074.05  1181.97  1194.82  1330.50  1341.22
                             1365.45  1398.59  1419.19  1569.15  1621.52
                             1706.08  1747.30  1788.53  1799.27  1882.47
                             1964.88  1967.00  2009.63  2077.23  2156.48
                             2167.69  2290.69  2334.46  2380.64  4582.22
                             4589.37  4652.51

 Zero-point correction=                           0.106196 (Hartree/Particle)
 Thermal correction to Energy=                    0.116892
 Thermal correction to Enthalpy=                  0.117837
 Thermal correction to Gibbs Free Energy=         0.067750
 Sum of electronic and zero-point Energies=          -3342.073460
 Sum of electronic and thermal Energies=             -3342.062764
 Sum of electronic and thermal Enthalpies=           -3342.061820
 Sum of electronic and thermal Free Energies=        -3342.111907

                     E (Thermal)             CV                S
                      KCal/Mol        Cal/Mol-Kelvin    Cal/Mol-Kelvin
 Total                   73.351             40.936            105.417
 Electronic               0.000              0.000              0.000
 Translational            0.889              2.981             42.754
 Rotational               0.889              2.981             33.215
 Vibrational             71.574             34.974             29.447
 Vibration     1          0.595              1.980              5.107
 Vibration     2          0.607              1.938              3.195
 Vibration     3          0.613              1.921              2.909
 Vibration     4          0.627              1.874              2.391
 Vibration     5          0.635              1.848              2.187
 Vibration     6          0.651              1.799              1.900
 Vibration     7          0.668              1.747              1.665
 Vibration     8          0.733              1.560              1.132
 Vibration     9          0.736              1.549              1.111
 Vibration    10          0.769              1.462              0.949
 Vibration    11          0.792              1.404              0.857
 Vibration    12          0.837              1.292              0.707
 Vibration    13          0.863              1.233              0.639
 Vibration    14          0.875              1.207              0.611
 Vibration    15          0.919              1.111              0.517
 Vibration    16          0.942              1.063              0.475
 Vibration    17          0.966              1.016              0.437

                           ! Non-Optimized Parameters !
 Normal termination of Gaussian 16 at Tue Sep 17 09:52:05 2024.

 ----------------------------------------------------------------------
 #p M062X/def2tzvp geom=check guess=read scf(xqc,tight) integral(grid=u
 ltrafine) scrf(SMD, solvent=1,4-Dioxane) polar prop=efg volume
 ----------------------------------------------------------------------

 ---
 spe
 ---
 Structure from the checkpoint file:  "smiles_00106_conf_0.chk"
 Charge =  0 Multiplicity = 1

 SCF Done:  E(RM062X) =  -3344.67055728     A.U. after   12 cycles

  Exact polarizability:     258.617     -17.014     142.153      -0.014      -0.002      81.369
 Approx polarizability:     257.981     -17.211     179.549      -0.020      -0.003     103.328

 Normal termination of Gaussian 16 at Tue Sep 17 10:51:55 2024.
 Gaussian 16:  ES64L-G16RevC.02  7-Dec-2021

 ----------------------------------------------------------------------
 #p M062X/def2tzvp geom=check guess=read scf(xqc,tight) integral(grid=u
 ltrafine) scrf(SMD, solvent=1,4-Dioxane) nmr=giao
 ----------------------------------------------------------------------

 ---
 spe
 ---
 Structure from the checkpoint file:  "smiles_00106_conf_0.chk"
 Charge =  0 Multiplicity = 1

                         Standard orientation:
 ---------------------------------------------------------------------
 Center     Atomic      Atomic             Coordinates (Angstroms)
 Number     Number       Type             X           Y           Z
 ---------------------------------------------------------------------
      1          9           0        4.528639   -0.428785   -1.082607
      2          6           0        3.958520    0.148802    0.000148
      3          9           0        4.256057    1.447317   -0.007199
      4          9           0        4.525188   -0.415657    1.091548
      5          6           0        2.465157   -0.114070   -0.000691
      6          6           0        2.017610   -1.466456   -0.000605
      7          7           0        0.740552   -1.774941   -0.000348
      8          6           0       -0.130519   -0.726321   -0.000275
      9          6           0       -1.524198   -0.973806   -0.000057
     10          6           0       -2.361857    0.112332   -0.000043
     11         35           0       -4.248593   -0.097500    0.000238
     12          6           0       -1.822364    1.428985   -0.000258
     13          7           0       -0.533243    1.683667   -0.000456
     14          6           0        0.322341    0.628264   -0.000448
     15          7           0        1.651670    0.914076   -0.000568
     16          1           0        2.736193   -2.281930   -0.000873
     17          1           0       -1.884055   -1.995561    0.000078
     18          1           0       -2.501346    2.278119   -0.000256
 ---------------------------------------------------------------------

 SCF Done:  E(RM062X) =  -3344.67055728     A.U. after    1 cycles

      1  F    Isotropic =   237.2145   Anisotropy =   148.4302

      2  C    Isotropic =    53.0847   Anisotropy =    18.9366

      3  F    Isotropic =   262.7148   Anisotropy =   106.7807

      4  F    Isotropic =   236.9326   Anisotropy =   148.3791

      5  C    Isotropic =    15.4679   Anisotropy =   176.3503

      6  C    Isotropic =    15.6294   Anisotropy =   203.8889

      7  N    Isotropic =  -179.5517   Anisotropy =   687.7109

      8  C    Isotropic =    23.2756   Anisotropy =   214.0861

      9  C    Isotropic =    19.4194   Anisotropy =   185.0116

     10  C    Isotropic =    22.9657   Anisotropy =   153.5406

     11  Br   Isotropic =  2081.4500   Anisotropy =  1206.4312

     12  C    Isotropic =     2.9881   Anisotropy =   181.8008

     13  N    Isotropic =  -153.7787   Anisotropy =   591.5129

     14  C    Isotropic =    14.6782   Anisotropy =   198.2566

     15  N    Isotropic =  -157.9153   Anisotropy =   638.2651

     16  H    Isotropic =    21.5415   Anisotropy =    10.5380

     17  H    Isotropic =    22.2165   Anisotropy =    11.8372

     18  H    Isotropic =    21.6069   Anisotropy =    12.2160

 The electronic state is 1-A.
 Alpha  occ. eigenvalues -- -485.39795 -63.38267 -57.20218 -57.19974 -57.19963
 Alpha  occ. eigenvalues --  -25.29400 -25.29281 -25.29279 -14.80173 -14.79965
 Alpha  occ. eigenvalues --  -14.78397 -10.81549 -10.64270 -10.63476 -10.63402
 Alpha  occ. eigenvalues --  -10.62252 -10.62095 -10.61799 -10.59337  -9.04912
 Alpha  occ. eigenvalues --   -6.87343  -6.86435  -6.86399  -2.90721  -2.90394
 Alpha  occ. eigenvalues --   -2.90357  -2.89511  -2.89510  -1.47593  -1.38845
 Alpha  occ. eigenvalues --   -1.38399  -1.13992  -1.07901  -1.05338  -0.95903
 Alpha  occ. eigenvalues --   -0.92496  -0.88290  -0.83371  -0.79568  -0.76759
 Alpha  occ. eigenvalues --   -0.74325  -0.70498  -0.70433  -0.69556  -0.65206
 Alpha  occ. eigenvalues --   -0.63053  -0.61345  -0.58740  -0.58542  -0.55933
 Alpha  occ. eigenvalues --   -0.55695  -0.54380  -0.54361  -0.53586  -0.52810
 Alpha  occ. eigenvalues --   -0.51265  -0.49433  -0.47980  -0.46225  -0.44888
 Alpha  occ. eigenvalues --   -0.42227  -0.40185  -0.39192  -0.36948  -0.35134
 Alpha  occ. eigenvalues --   -0.33839  -0.32483
 Alpha virt. eigenvalues --   -0.08060  -0.03519   0.00018   0.01980   0.07321
 Alpha virt. eigenvalues --    0.08434   0.10073   0.10571   0.11679   0.14190
 Alpha virt. eigenvalues --    0.14938   0.16104   0.16901   0.17495   0.18547

 Mulliken charges:
               1
     1  F   -0.180817
     2  C    0.509835
     3  F   -0.155134
     4  F   -0.180660
     5  C    0.027124
     6  C   -0.076456
     7  N   -0.217615
     8  C    0.125015
     9  C   -0.195229
    10  C    0.059634
    11  Br  -0.058166
    12  C   -0.075988
    13  N   -0.210446
    14  C    0.221671
    15  N   -0.179924
    16  H    0.191707
    17  H    0.206634
    18  H    0.188816
 Sum of Mulliken charges =  -0.00000

 Dipole moment (field-independent basis, Debye):
    X=             -2.5497    Y=             -2.3163    Z=             -0.0016  Tot=              3.4448
 Quadrupole moment (field-independent basis, Debye-Ang):
   XX=            -98.8581   YY=            -98.8163   ZZ=            -96.1352
   XY=             -6.6151   XZ=             -0.0068   YZ=              0.0010

 Normal termination of Gaussian 16 at Tue Sep 17 11:14:15 2024.
