 Gaussian 16, Revision C.02,

 ----------------------------------------------------------------------
 #p B3LYP/6-31G(d,p) EmpiricalDispersion=GD3BJ opt freq scf(xqc,tight)
 integral(grid=ultrafine)
 ----------------------------------------------------------------------

 ----------------------------------
 opt-freq conformers_unique/conf_ab
 ----------------------------------
 Symbolic Z-matrix:
 Charge =  0 Multiplicity = 1

 SCF Done:  E(RB3LYP) =  -3063.33412634     A.U. after   15 cycles
 SCF Done:  E(RB3LYP) =  -3063.33605117     A.U. after   12 cycles
 SCF Done:  E(RB3LYP) =  -3063.33619613     A.U. after   11 cycles
 SCF Done:  E(RB3LYP) =  -3063.33619052     A.U. after   11 cycles
 SCF Done:  E(RB3LYP) =  -3063.33622653     A.U. after   11 cycles
 SCF Done:  E(RB3LYP) =  -3063.33625300     A.U. after   10 cycles
 SCF Done:  E(RB3LYP) =  -3063.33648394     A.U. after   15 cycles
 SCF Done:  E(RB3LYP) =  -3063.33671477     A.U. after   11 cycles
 SCF Done:  E(RB3LYP) =  -3063.33700610     A.U. after   11 cycles
 SCF Done:  E(RB3LYP) =  -3063.33706533     A.U. after   12 cycles
 SCF Done:  E(RB3LYP) =  -3063.33725040     A.U. after   12 cycles
 SCF Done:  E(RB3LYP) =  -3063.33732890     A.U. after   10 cycles
 SCF Done:  E(RB3LYP) =  -3063.33736630     A.U. after   11 cycles
 SCF Done:  E(RB3LYP) =  -3063.33736681     A.U. after    8 cycles
 SCF Done:  E(RB3LYP) =  -3063.33736702     A.U. after    8 cycles
 SCF Done:  E(RB3LYP) =  -3063.33736707     A.U. after    7 cycles
 Optimization completed.
    -- Stationary point found.
 Normal termination of Gaussian 16 at Tue Sep 17 09:47:45 2024.

 ----------------------------------------------------------------------
 #P Geom=AllCheck Guess=TCheck SCRF=Check GenChk RB3LYP/6-31G(d,p) Freq
 ----------------------------------------------------------------------

 Structure from the checkpoint file:  "smiles_00126_conf_1.chk"
 ----------------------------------
 opt-freq conformers_unique/conf_ab
 ----------------------------------
 Charge =  0 Multiplicity = 1

 SCF Done:  E(RB3LYP) =  -3063.33736707     A.U. after    1 cycles

                      1                      2                      3
                      A                      A                      A
 Frequencies --     41.2244               103.4410               104.0256
 Red. masses --      6.5897                 3.3152                 6.2471
 Frc consts  --      0.0066                 0.0209                 0.0398
 IR Inten    --      2.5958                 0.8749                 1.2023

                      4                      5                      6
                      A                      A                      A
 Frequencies --    129.1073               154.0559               206.3491
 Red. masses --      1.2098                 6.0208                 5.6293
 Frc consts  --      0.0119                 0.0842                 0.1412
 IR Inten    --      0.0037                 3.9292                 5.4631

                      7                      8                      9
                      A                      A                      A
 Frequencies --    245.6829               311.4548               340.1016
 Red. masses --      6.3527                15.0633                 5.7542
 Frc consts  --      0.2259                 0.8609                 0.3921
 IR Inten    --      0.8723                 4.4275                26.9969

                     10                     11                     12
                      A                      A                      A
 Frequencies --    362.6164               436.8138               514.4123
 Red. masses --      6.2668                 3.8078                 8.5733
 Frc consts  --      0.4855                 0.4281                 1.3367
 IR Inten    --      1.8953                 0.0014                 2.8844

                     13                     14                     15
                      A                      A                      A
 Frequencies --    545.5642               682.6557               760.3152
 Red. masses --      7.7783                 8.4014                 9.1142
 Frc consts  --      1.3640                 2.3068                 3.1042
 IR Inten    --      2.7201                22.1111                21.7019

                     16                     17                     18
                      A                      A                      A
 Frequencies --    768.4899               803.8122               877.4435
 Red. masses --      7.5013                 3.9804                 6.1750
 Frc consts  --      2.6101                 1.5153                 2.8011
 IR Inten    --     63.1885                 0.8338                 4.7579

                     19                     20                     21
                      A                      A                      A
 Frequencies --    893.8952              1004.6468              1011.0044
 Red. masses --      1.5138                 9.5552                 7.6403
 Frc consts  --      0.7127                 5.6822                 4.6011
 IR Inten    --     10.9388                 7.0633                26.4342

                     22                     23                     24
                      A                      A                      A
 Frequencies --   1011.8004              1104.9558              1179.1437
 Red. masses --      1.3989                 1.4480                 1.2777
 Frc consts  --      0.8438                 1.0417                 1.0467
 IR Inten    --      0.0282                 4.4255                 0.8889

                     25                     26                     27
                      A                      A                      A
 Frequencies --   1184.3966              1211.3465              1228.3279
 Red. masses --      2.5414                 3.0197                 2.2177
 Frc consts  --      2.1005                 2.6107                 1.9714
 IR Inten    --     67.0650               173.5941                71.9211

                     28                     29                     30
                      A                      A                      A
 Frequencies --   1258.4762              1353.3453              1376.2834
 Red. masses --     11.0751                 3.5947                 3.2110
 Frc consts  --     10.3345                 3.8791                 3.5835
 IR Inten    --     56.5040               369.5307               131.7908

                     31                     32                     33
                      A                      A                      A
 Frequencies --   1464.1355              1486.4973              1496.9328
 Red. masses --      2.1398                 1.4206                 1.0461
 Frc consts  --      2.7026                 1.8495                 1.3811
 IR Inten    --     56.7366                36.6199                 7.4528

                     34                     35                     36
                      A                      A                      A
 Frequencies --   1506.4188              1602.0284              1610.7853
 Red. masses --      1.0573                 6.8472                 6.5796
 Frc consts  --      1.4137                10.3539                10.0583
 IR Inten    --      4.4869               157.2973                75.0460

                     37                     38                     39
                      A                      A                      A
 Frequencies --   1807.4802              3068.8221              3147.1546
 Red. masses --     11.6767                 1.0301                 1.1071
 Frc consts  --     22.4758                 5.7157                 6.4607
 IR Inten    --    174.9220                28.0066                17.3667

                     40                     41                     42
                      A                      A                      A
 Frequencies --   3187.0291              3187.6054              3251.8665
 Red. masses --      1.1069                 1.0921                 1.0944
 Frc consts  --      6.6242                 6.5378                 6.8187
 IR Inten    --     13.9037                13.7732                 1.7032

 - Thermochemistry -
 -------------------
 Temperature   298.150 Kelvin.  Pressure   1.00000 Atm.
 Atom     1 has atomic number  6 and mass  12.00000

 Molecular mass:   215.95344 amu.
 Principal axes and moments of inertia in atomic units:
                           1         2         3
     Eigenvalues --  1183.352384346.553465518.52717
           X            0.99900   0.04463  -0.00000
           Y           -0.04463   0.99900  -0.00000
           Z            0.00000   0.00000   1.00000
 This molecule is an asymmetric top.
 Rotational symmetry number  1.
 Warning -- assumption of classical behavior for rotation
           may cause significant error
 Rotational temperatures (Kelvin)      0.07319     0.01993     0.01570
 Rotational constants (GHZ):           1.52511     0.41521     0.32703
 Zero-point vibrational energy     287235.0 (Joules/Mol)
                                   68.65082 (Kcal/Mol)
 Warning -- explicit consideration of  13 degrees of freedom as
           vibrations may cause significant error
 Vibrational temperatures:     59.31   148.83   149.67   185.76   221.65
          (Kelvin)            296.89   353.48   448.11   489.33   521.72
                              628.48   740.12   784.95   982.19  1093.92
                             1105.69  1156.51  1262.45  1286.12  1445.46
                             1454.61  1455.76  1589.78  1696.52  1704.08
                             1742.86  1767.29  1810.67  1947.16  1980.16
                             2106.56  2138.74  2153.75  2167.40  2304.96
                             2317.56  2600.56  4415.35  4528.05  4585.42
                             4586.25  4678.71

 Zero-point correction=                           0.109402 (Hartree/Particle)
 Thermal correction to Energy=                    0.119457
 Thermal correction to Enthalpy=                  0.120401
 Thermal correction to Gibbs Free Energy=         0.071583
 Sum of electronic and zero-point Energies=          -3063.227965
 Sum of electronic and thermal Energies=             -3063.217910
 Sum of electronic and thermal Enthalpies=           -3063.216966
 Sum of electronic and thermal Free Energies=        -3063.265784

                     E (Thermal)             CV                S
                      KCal/Mol        Cal/Mol-Kelvin    Cal/Mol-Kelvin
 Total                   74.961             34.826            102.747
 Electronic               0.000              0.000              0.000
 Translational            0.889              2.981             42.013
 Rotational               0.889              2.981             31.718
 Vibrational             73.183             28.865             29.016
 Vibration     1          0.594              1.981              5.199
 Vibration     2          0.605              1.946              3.388
 Vibration     3          0.605              1.946              3.377
 Vibration     4          0.612              1.924              2.959
 Vibration     5          0.620              1.898              2.622
 Vibration     6          0.641              1.831              2.076
 Vibration     7          0.660              1.770              1.761
 Vibration     8          0.700              1.652              1.355
 Vibration     9          0.720              1.595              1.212
 Vibration    10          0.736              1.549              1.111
 Vibration    11          0.797              1.390              0.837
 Vibration    12          0.869              1.218              0.623
 Vibration    13          0.901              1.149              0.553

 Optimization completed.
    -- Stationary point found.
 Normal termination of Gaussian 16 at Tue Sep 17 09:48:53 2024.

 ----------------------------------------------------------------------
 #p M062X/def2tzvp geom=check guess=read scf(xqc,tight) integral(grid=u
 ltrafine) scrf(SMD, solvent=1,4-Dioxane) polar prop=efg volume
 ----------------------------------------------------------------------

 ---
 spe
 ---
 Structure from the checkpoint file:  "smiles_00126_conf_1.chk"
 Charge =  0 Multiplicity = 1

 SCF Done:  E(RM062X) =  -3065.79769416     A.U. after   12 cycles

  Exact polarizability:     158.392      -8.106     137.408       0.002       0.001      70.290
 Approx polarizability:     162.999     -13.978     154.924       0.004       0.001      87.069

 Normal termination of Gaussian 16 at Tue Sep 17 10:23:15 2024.
 Gaussian 16:  ES64L-G16RevC.02  7-Dec-2021

 ----------------------------------------------------------------------
 #p M062X/def2tzvp geom=check guess=read scf(xqc,tight) integral(grid=u
 ltrafine) scrf(SMD, solvent=1,4-Dioxane) nmr=giao
 ----------------------------------------------------------------------

 ---
 spe
 ---
 Structure from the checkpoint file:  "smiles_00126_conf_1.chk"
 Charge =  0 Multiplicity = 1

                         Standard orientation:
 ---------------------------------------------------------------------
 Center     Atomic      Atomic             Coordinates (Angstroms)
 Number     Number       Type             X           Y           Z
 ---------------------------------------------------------------------
      1          6           0       -3.821831   -1.849849    0.000190
      2          8           0       -2.508104   -1.263170    0.000257
      3          6           0       -2.486351    0.071118   -0.000116
      4          8           0       -3.470566    0.783326   -0.000487
      5          6           0       -1.088468    0.632338   -0.000019
      6          6           0       -0.928351    2.017253    0.000077
      7          6           0        0.383245    2.484170    0.000200
      8          7           0        1.438994    1.660446    0.000173
      9          6           0        1.147629    0.363249    0.000015
     10         35           0        2.641354   -0.823756   -0.000060
     11          7           0       -0.047324   -0.210753   -0.000043
     12          1           0       -3.658443   -2.926109    0.000775
     13          1           0       -4.375917   -1.541234   -0.889151
     14          1           0       -4.376397   -1.540366    0.888937
     15          1           0       -1.789619    2.672130    0.000049
     16          1           0        0.605404    3.548284    0.000328
 ---------------------------------------------------------------------

 SCF Done:  E(RM062X) =  -3065.79769416     A.U. after    1 cycles

      1  C    Isotropic =   129.5574   Anisotropy =    73.9909

      2  O    Isotropic =   128.0903   Anisotropy =   196.6460

      3  C    Isotropic =     0.0405   Anisotropy =   104.2830

      4  O    Isotropic =  -145.4150   Anisotropy =   714.8502

      5  C    Isotropic =     2.7108   Anisotropy =   192.8764

      6  C    Isotropic =    44.2900   Anisotropy =   214.4937

      7  C    Isotropic =    -2.7754   Anisotropy =   224.7444

      8  N    Isotropic =  -134.5400   Anisotropy =   553.7074

      9  C    Isotropic =   -11.6261   Anisotropy =    98.0379

     10  Br   Isotropic =  1803.9934   Anisotropy =  1650.5051

     11  N    Isotropic =  -116.7882   Anisotropy =   518.6718

     12  H    Isotropic =    27.8433   Anisotropy =     7.2961

     13  H    Isotropic =    27.8662   Anisotropy =     8.0717

     14  H    Isotropic =    27.8656   Anisotropy =     8.0706

     15  H    Isotropic =    22.8608   Anisotropy =     8.6433

     16  H    Isotropic =    22.1576   Anisotropy =     7.4290

 The electronic state is 1-A.
 Alpha  occ. eigenvalues -- -485.38148 -63.36654 -57.18598 -57.18366 -57.18341
 Alpha  occ. eigenvalues --  -19.68846 -19.63701 -14.78915 -14.78747 -10.69524
 Alpha  occ. eigenvalues --  -10.68041 -10.63053 -10.61833 -10.59544 -10.57939
 Alpha  occ. eigenvalues --   -9.03321  -6.85739  -6.84873  -6.84792  -2.89118
 Alpha  occ. eigenvalues --   -2.88818  -2.88736  -2.87932  -2.87930  -1.25152
 Alpha  occ. eigenvalues --   -1.15818  -1.13530  -1.03016  -0.93960  -0.86864
 Alpha  occ. eigenvalues --   -0.84824  -0.78145  -0.74511  -0.67352  -0.64217
 Alpha  occ. eigenvalues --   -0.61933  -0.58378  -0.57221  -0.56401  -0.53881
 Alpha  occ. eigenvalues --   -0.53323  -0.49308  -0.49018  -0.48213  -0.44430
 Alpha  occ. eigenvalues --   -0.40321  -0.39940  -0.39739  -0.39043  -0.38850
 Alpha  occ. eigenvalues --   -0.36274  -0.34438  -0.33360
 Alpha virt. eigenvalues --   -0.05885  -0.02115   0.03693   0.06661   0.07884
 Alpha virt. eigenvalues --    0.09337   0.10649   0.11864   0.13316   0.14464
 Alpha virt. eigenvalues --    0.15311   0.17256   0.17301   0.18189   0.19897

 Mulliken charges:
               1
     1  C   -0.274702
     2  O   -0.234763
     3  C    0.363130
     4  O   -0.353630
     5  C    0.136149
     6  C   -0.183501
     7  C    0.000385
     8  N   -0.227300
     9  C    0.191128
    10  Br  -0.062811
    11  N   -0.221938
    12  H    0.164202
    13  H    0.163851
    14  H    0.163844
    15  H    0.192986
    16  H    0.182971
 Sum of Mulliken charges =  -0.00000

 Dipole moment (field-independent basis, Debye):
    X=             -2.5187    Y=              0.9198    Z=              0.0008  Tot=              2.6813
 Quadrupole moment (field-independent basis, Debye-Ang):
   XX=            -77.2938   YY=            -64.9095   ZZ=            -74.5681
   XY=              6.5924   XZ=             -0.0035   YZ=              0.0013

 Normal termination of Gaussian 16 at Tue Sep 17 10:36:19 2024.
