 Gaussian 16, Revision C.02,

 ----------------------------------------------------------------------
 #p B3LYP/6-31G(d,p) EmpiricalDispersion=GD3BJ opt freq scf(xqc,tight)
 integral(grid=ultrafine)
 ----------------------------------------------------------------------

 ----------------------------------
 opt-freq conformers_unique/conf_ad
 ----------------------------------
 Symbolic Z-matrix:
 Charge =  0 Multiplicity = 1

 SCF Done:  E(RB3LYP) =  -3128.15966563     A.U. after   15 cycles
 SCF Done:  E(RB3LYP) =  -3128.16158062     A.U. after   12 cycles
 SCF Done:  E(RB3LYP) =  -3128.16165033     A.U. after   11 cycles
 SCF Done:  E(RB3LYP) =  -3128.16167283     A.U. after   11 cycles
 SCF Done:  E(RB3LYP) =  -3128.16169241     A.U. after   11 cycles
 SCF Done:  E(RB3LYP) =  -3128.16171907     A.U. after   11 cycles
 SCF Done:  E(RB3LYP) =  -3128.16180483     A.U. after   12 cycles
 SCF Done:  E(RB3LYP) =  -3128.15735058     A.U. after   16 cycles
 SCF Done:  E(RB3LYP) =  -3128.16192413     A.U. after   12 cycles
 SCF Done:  E(RB3LYP) =  -3128.16218123     A.U. after   12 cycles
 SCF Done:  E(RB3LYP) =  -3128.16391978     A.U. after   11 cycles
 SCF Done:  E(RB3LYP) =  -3128.16394513     A.U. after   12 cycles
 SCF Done:  E(RB3LYP) =  -3128.16396821     A.U. after   11 cycles
 SCF Done:  E(RB3LYP) =  -3128.16397109     A.U. after    9 cycles
 SCF Done:  E(RB3LYP) =  -3128.16397474     A.U. after    9 cycles
 SCF Done:  E(RB3LYP) =  -3128.16397539     A.U. after    8 cycles
 SCF Done:  E(RB3LYP) =  -3128.16397573     A.U. after    8 cycles
 Optimization completed.
    -- Stationary point found.
 Normal termination of Gaussian 16 at Tue Sep 17 10:04:24 2024.

 ----------------------------------------------------------------------
 #P Geom=AllCheck Guess=TCheck SCRF=Check GenChk RB3LYP/6-31G(d,p) Freq
 ----------------------------------------------------------------------

 Structure from the checkpoint file:  "smiles_00050_conf_3.chk"
 ----------------------------------
 opt-freq conformers_unique/conf_ad
 ----------------------------------
 Charge =  0 Multiplicity = 1

 SCF Done:  E(RB3LYP) =  -3128.16397573     A.U. after    1 cycles

                      1                      2                      3
                      A                      A                      A
 Frequencies --     40.2104                41.1965                65.1083
 Red. masses --      4.4150                 2.7056                 3.9899
 Frc consts  --      0.0042                 0.0027                 0.0100
 IR Inten    --      2.5688                 0.0104                 1.2053

                      4                      5                      6
                      A                      A                      A
 Frequencies --     66.6318               140.9366               186.4203
 Red. masses --      4.5351                 6.6855                 4.7331
 Frc consts  --      0.0119                 0.0782                 0.0969
 IR Inten    --      1.1156                 0.8995                 0.7610

                      7                      8                      9
                      A                      A                      A
 Frequencies --    203.6471               239.2416               266.2541
 Red. masses --      2.4479                 4.6385                 2.4450
 Frc consts  --      0.0598                 0.1564                 0.1021
 IR Inten    --      2.8709                 1.1238                 0.3865

                     10                     11                     12
                      A                      A                      A
 Frequencies --    297.1722               319.1631               334.5044
 Red. masses --      8.8156                 4.0642                 5.1321
 Frc consts  --      0.4587                 0.2439                 0.3383
 IR Inten    --      2.1664                11.1393                 0.8936

                     13                     14                     15
                      A                      A                      A
 Frequencies --    406.7489               450.7471               504.8333
 Red. masses --      5.7218                 3.4707                 5.5143
 Frc consts  --      0.5577                 0.4155                 0.8280
 IR Inten    --      9.9262                 3.4436                 0.2893

                     16                     17                     18
                      A                      A                      A
 Frequencies --    572.9659               616.9733               663.4545
 Red. masses --      1.9674                 4.7602                 6.6956
 Frc consts  --      0.3805                 1.0676                 1.7365
 IR Inten    --      1.8957                 3.0943                 5.7195

                     19                     20                     21
                      A                      A                      A
 Frequencies --    696.7289               715.5880               754.7642
 Red. masses --      3.9803                 2.9889                 2.9057
 Frc consts  --      1.1384                 0.9018                 0.9753
 IR Inten    --     18.3283                29.3944                24.9124

                     22                     23                     24
                      A                      A                      A
 Frequencies --    782.6620               820.0187               863.3870
 Red. masses --      3.4872                 1.7242                 1.8170
 Frc consts  --      1.2586                 0.6831                 0.7980
 IR Inten    --      9.4539                16.2998                 5.5975

                     25                     26                     27
                      A                      A                      A
 Frequencies --    886.2273               919.1622               928.5787
 Red. masses --      1.9965                 1.9124                 2.1703
 Frc consts  --      0.9239                 0.9520                 1.1026
 IR Inten    --      4.3942                12.4182                 1.9503

                     28                     29                     30
                      A                      A                      A
 Frequencies --    932.1898               939.0152               942.6214
 Red. masses --      1.6147                 1.5162                 1.9850
 Frc consts  --      0.8267                 0.7877                 1.0391
 IR Inten    --      3.2474                 0.9891                 4.0895

                     31                     32                     33
                      A                      A                      A
 Frequencies --    994.2035               995.9472              1017.8104
 Red. masses --      1.3271                 1.7128                 5.7230
 Frc consts  --      0.7729                 1.0010                 3.4931
 IR Inten    --      1.0721                 3.5492                 6.1506

                     34                     35                     36
                      A                      A                      A
 Frequencies --   1049.9026              1097.3966              1122.0386
 Red. masses --      1.9035                 2.2216                 1.5592
 Frc consts  --      1.2362                 1.5763                 1.1566
 IR Inten    --      1.8948                17.6269                10.7174

                     37                     38                     39
                      A                      A                      A
 Frequencies --   1141.8862              1167.6884              1191.8416
 Red. masses --      1.6832                 1.8886                 2.5375
 Frc consts  --      1.2931                 1.5172                 2.1237
 IR Inten    --      5.9878                14.4793                 5.7393

                     40                     41                     42
                      A                      A                      A
 Frequencies --   1196.3424              1204.8761              1228.9942
 Red. masses --      1.1407                 1.6504                 2.0239
 Frc consts  --      0.9619                 1.4117                 1.8011
 IR Inten    --      1.9981                 9.0485                34.0938

                     43                     44                     45
                      A                      A                      A
 Frequencies --   1263.8160              1285.9449              1313.5269
 Red. masses --      1.2326                 1.3428                 1.5245
 Frc consts  --      1.1600                 1.3083                 1.5498
 IR Inten    --     22.6450                42.9289                 5.6262

                     46                     47                     48
                      A                      A                      A
 Frequencies --   1328.9058              1354.3095              1359.7546
 Red. masses --      1.3426                 4.1022                 1.2693
 Frc consts  --      1.3969                 4.4331                 1.3827
 IR Inten    --      0.2302                 0.6992                 2.8971

                     49                     50                     51
                      A                      A                      A
 Frequencies --   1371.8066              1384.4467              1423.5453
 Red. masses --      1.5029                 1.4214                 5.3480
 Frc consts  --      1.6664                 1.6052                 6.3853
 IR Inten    --     20.9351                 8.1077               415.5831

                     52                     53                     54
                      A                      A                      A
 Frequencies --   1453.8621              1504.4766              1511.7039
 Red. masses --      2.9290                 1.0896                 1.1249
 Frc consts  --      3.6477                 1.4530                 1.5146
 IR Inten    --     12.6429                 3.5502                 7.5854

                     55                     56                     57
                      A                      A                      A
 Frequencies --   1517.9864              1531.4469              1542.6399
 Red. masses --      2.3248                 1.0836                 1.1111
 Frc consts  --      3.1562                 1.4974                 1.5578
 IR Inten    --     16.1106                 2.3191                 5.4866

                     58                     59                     60
                      A                      A                      A
 Frequencies --   1621.3233              1650.6963              1738.8042
 Red. masses --      6.0894                 6.1711                11.6843
 Frc consts  --      9.4311                 9.9070                20.8139
 IR Inten    --     46.7728                 0.4498               264.5832

                     61                     62                     63
                      A                      A                      A
 Frequencies --   3035.3992              3050.6938              3059.0846
 Red. masses --      1.0725                 1.0665                 1.0681
 Frc consts  --      5.8223                 5.8483                 5.8889
 IR Inten    --     48.4021                23.3853                20.8679

                     64                     65                     66
                      A                      A                      A
 Frequencies --   3064.2502              3106.8635              3118.8621
 Red. masses --      1.0618                 1.0978                 1.0995
 Frc consts  --      5.8740                 6.2434                 6.3014
 IR Inten    --     27.4176                23.3070                29.6648

                     67                     68                     69
                      A                      A                      A
 Frequencies --   3126.4532              3145.2613              3196.5871
 Red. masses --      1.1048                 1.0943                 1.0881
 Frc consts  --      6.3625                 6.3781                 6.5510
 IR Inten    --     39.3277                 6.3200                 8.0815

                     70                     71                     72
                      A                      A                      A
 Frequencies --   3221.6534              3225.7551              3227.5904
 Red. masses --      1.0917                 1.0954                 1.0918
 Frc consts  --      6.6757                 6.7156                 6.7010
 IR Inten    --      0.8062                 6.4234                 0.2103

 - Thermochemistry -
 -------------------
 Temperature   298.150 Kelvin.  Pressure   1.00000 Atm.
 Atom     1 has atomic number  8 and mass  15.99491

 Molecular mass:   253.01023 amu.
 Principal axes and moments of inertia in atomic units:
                           1         2         3
     Eigenvalues --  1995.719607002.647468347.99689
           X            0.99878  -0.04925   0.00208
           Y            0.04925   0.99879  -0.00075
           Z           -0.00205   0.00085   1.00000
 This molecule is an asymmetric top.
 Rotational symmetry number  1.
 Warning -- assumption of classical behavior for rotation
           may cause significant error
 Rotational temperatures (Kelvin)      0.04340     0.01237     0.01038
 Rotational constants (GHZ):           0.90431     0.25772     0.21619
 Zero-point vibrational energy     554729.5 (Joules/Mol)
                                  132.58353 (Kcal/Mol)
 Warning -- explicit consideration of  17 degrees of freedom as
           vibrations may cause significant error
 Vibrational temperatures:     57.85    59.27    93.68    95.87   202.78
          (Kelvin)            268.22   293.00   344.22   383.08   427.56
                              459.20   481.28   585.22   648.52   726.34
                              824.37   887.69   954.56  1002.44  1029.57
                             1085.94  1126.08  1179.82  1242.22  1275.08
                             1322.47  1336.02  1341.21  1351.03  1356.22
                             1430.44  1432.95  1464.40  1510.58  1578.91
                             1614.36  1642.92  1680.04  1714.79  1721.27
                             1733.55  1768.25  1818.35  1850.19  1889.87
                             1912.00  1948.55  1956.38  1973.72  1991.91
                             2048.16  2091.78  2164.61  2175.00  2184.04
                             2203.41  2219.51  2332.72  2374.98  2501.75
                             4367.26  4389.27  4401.34  4408.77  4470.08
                             4487.35  4498.27  4525.33  4599.18  4635.24
                             4641.14  4643.78

 Zero-point correction=                           0.211285 (Hartree/Particle)
 Thermal correction to Energy=                    0.223877
 Thermal correction to Enthalpy=                  0.224821
 Thermal correction to Gibbs Free Energy=         0.169689
 Sum of electronic and zero-point Energies=          -3127.952690
 Sum of electronic and thermal Energies=             -3127.940099
 Sum of electronic and thermal Enthalpies=           -3127.939155
 Sum of electronic and thermal Free Energies=        -3127.994287

                     E (Thermal)             CV                S
                      KCal/Mol        Cal/Mol-Kelvin    Cal/Mol-Kelvin
 Total                  140.485             46.970            116.035
 Electronic               0.000              0.000              0.000
 Translational            0.889              2.981             42.485
 Rotational               0.889              2.981             33.122
 Vibrational            138.707             41.008             40.428
 Vibration     1          0.594              1.981              5.249
 Vibration     2          0.594              1.981              5.201
 Vibration     3          0.597              1.971              4.296
 Vibration     4          0.598              1.970              4.250
 Vibration     5          0.615              1.912              2.791
 Vibration     6          0.632              1.858              2.263
 Vibration     7          0.639              1.835              2.100
 Vibration     8          0.657              1.780              1.809
 Vibration     9          0.672              1.735              1.620
 Vibration    10          0.691              1.679              1.433
 Vibration    11          0.705              1.637              1.314
 Vibration    12          0.716              1.607              1.238
 Vibration    13          0.772              1.456              0.938
 Vibration    14          0.810              1.359              0.794
 Vibration    15          0.860              1.239              0.646
 Vibration    16          0.929              1.090              0.499
 Vibration    17          0.977              0.996              0.421

                           ! Non-Optimized Parameters !
 Normal termination of Gaussian 16 at Tue Sep 17 10:06:34 2024.

 ----------------------------------------------------------------------
 #p M062X/def2tzvp geom=check guess=read scf(xqc,tight) integral(grid=u
 ltrafine) scrf(SMD, solvent=1,4-Dioxane) polar prop=efg volume
 ----------------------------------------------------------------------

 ---
 spe
 ---
 Structure from the checkpoint file:  "smiles_00050_conf_3.chk"
 Charge =  0 Multiplicity = 1

 SCF Done:  E(RM062X) =  -3130.56363283     A.U. after   13 cycles

  Exact polarizability:     218.115       5.114     188.063      10.882      -9.871     125.787
 Approx polarizability:     212.985      14.169     211.479      12.947     -13.415     151.597

 Normal termination of Gaussian 16 at Tue Sep 17 11:16:33 2024.
 Gaussian 16:  ES64L-G16RevC.02  7-Dec-2021

 ----------------------------------------------------------------------
 #p M062X/def2tzvp geom=check guess=read scf(xqc,tight) integral(grid=u
 ltrafine) scrf(SMD, solvent=1,4-Dioxane) nmr=giao
 ----------------------------------------------------------------------

 ---
 spe
 ---
 Structure from the checkpoint file:  "smiles_00050_conf_3.chk"
 Charge =  0 Multiplicity = 1

                         Standard orientation:
 ---------------------------------------------------------------------
 Center     Atomic      Atomic             Coordinates (Angstroms)
 Number     Number       Type             X           Y           Z
 ---------------------------------------------------------------------
      1          8           0        2.245720    1.981100    1.149073
      2          6           0        1.725666    1.023542    0.579155
      3          6           0        0.301853    1.117098    0.102804
      4          6           0       -0.107734    2.308838   -0.506026
      5          6           0       -1.426564    2.463744   -0.923882
      6          6           0       -2.360241    1.447112   -0.714684
      7          6           0       -1.947306    0.279466   -0.078813
      8         35           0       -3.219146   -1.111646    0.244186
      9          6           0       -0.629519    0.098775    0.329820
     10          7           0        2.391043   -0.152378    0.356460
     11          6           0        3.818491   -0.235687    0.710795
     12          6           0        4.437694   -0.997590   -0.462778
     13          6           0        3.319627   -1.971165   -0.859801
     14          6           0        2.033274   -1.148398   -0.677252
     15          1           0        0.617803    3.103845   -0.634540
     16          1           0       -1.739146    3.383111   -1.408763
     17          1           0       -3.390783    1.560465   -1.029544
     18          1           0       -0.342822   -0.810909    0.841974
     19          1           0        4.208167    0.772145    0.855526
     20          1           0        3.939499   -0.786700    1.652350
     21          1           0        5.370839   -1.499933   -0.196284
     22          1           0        4.647817   -0.304963   -1.285485
     23          1           0        3.311918   -2.827334   -0.176522
     24          1           0        3.415422   -2.358593   -1.877073
     25          1           0        1.740707   -0.642319   -1.604255
     26          1           0        1.196185   -1.777762   -0.367714
 ---------------------------------------------------------------------

 SCF Done:  E(RM062X) =  -3130.56363283     A.U. after    1 cycles

      1  O    Isotropic =  -151.8750   Anisotropy =   680.8540

      2  C    Isotropic =    -6.2979   Anisotropy =   137.8322

      3  C    Isotropic =    21.0709   Anisotropy =   201.7055

      4  C    Isotropic =    34.1595   Anisotropy =   220.1054

      5  C    Isotropic =    33.1018   Anisotropy =   214.8398

      6  C    Isotropic =    29.1484   Anisotropy =   189.3580

      7  C    Isotropic =    26.2913   Anisotropy =   140.4148

      8  Br   Isotropic =  2074.1117   Anisotropy =  1316.8037

      9  C    Isotropic =    31.8904   Anisotropy =   182.7018

     10  N    Isotropic =   104.4212   Anisotropy =   184.2329

     11  C    Isotropic =   136.0728   Anisotropy =    45.3857

     12  C    Isotropic =   158.5400   Anisotropy =    16.7178

     13  C    Isotropic =   155.9499   Anisotropy =    24.5938

     14  C    Isotropic =   132.6770   Anisotropy =    42.0366

     15  H    Isotropic =    23.3981   Anisotropy =     8.3526

     16  H    Isotropic =    23.6400   Anisotropy =     5.7918

     17  H    Isotropic =    23.5725   Anisotropy =    10.1678

     18  H    Isotropic =    23.4245   Anisotropy =    13.8618

     19  H    Isotropic =    27.1582   Anisotropy =     6.8388

     20  H    Isotropic =    28.8351   Anisotropy =    10.0340

     21  H    Isotropic =    30.0553   Anisotropy =    11.2259

     22  H    Isotropic =    30.3265   Anisotropy =    10.1120

     23  H    Isotropic =    29.8596   Anisotropy =     9.8374

     24  H    Isotropic =    29.8622   Anisotropy =    10.3180

     25  H    Isotropic =    28.8536   Anisotropy =     5.1260

     26  H    Isotropic =    27.9554   Anisotropy =     9.5075

 The electronic state is 1-A.
 Alpha  occ. eigenvalues -- -485.37847 -63.36325 -57.18270 -57.18033 -57.18028
 Alpha  occ. eigenvalues --  -19.59204 -14.77430 -10.64522 -10.60879 -10.57491
 Alpha  occ. eigenvalues --  -10.56690 -10.56436 -10.56426 -10.56183 -10.55743
 Alpha  occ. eigenvalues --  -10.55502 -10.54118 -10.53810  -9.02967  -6.85373
 Alpha  occ. eigenvalues --   -6.84498  -6.84480  -2.88750  -2.88433  -2.88410
 Alpha  occ. eigenvalues --   -2.87595  -2.87595  -1.15790  -1.04971  -0.98654
 Alpha  occ. eigenvalues --   -0.90748  -0.89205  -0.86457  -0.83129  -0.82243
 Alpha  occ. eigenvalues --   -0.74996  -0.70749  -0.68928  -0.67263  -0.62738
 Alpha  occ. eigenvalues --   -0.60830  -0.57600  -0.57389  -0.54152  -0.52847
 Alpha  occ. eigenvalues --   -0.51137  -0.50361  -0.49837  -0.48508  -0.47278
 Alpha  occ. eigenvalues --   -0.46885  -0.45865  -0.43628  -0.42839  -0.41462
 Alpha  occ. eigenvalues --   -0.41182  -0.40865  -0.39419  -0.38200  -0.35630
 Alpha  occ. eigenvalues --   -0.33726  -0.32062  -0.30304  -0.30133
 Alpha virt. eigenvalues --   -0.01237   0.00515   0.03201   0.06188   0.07146
 Alpha virt. eigenvalues --    0.09668   0.09766   0.10515   0.11246   0.12290
 Alpha virt. eigenvalues --    0.12656   0.13369   0.13933   0.14284   0.14762

 Mulliken charges:
               1
     1  O   -0.417296
     2  C    0.272402
     3  C    0.071401
     4  C   -0.195974
     5  C   -0.144455
     6  C   -0.169188
     7  C    0.071567
     8  Br  -0.111369
     9  C   -0.241940
    10  N   -0.156626
    11  C   -0.215621
    12  C   -0.275847
    13  C   -0.295388
    14  C   -0.214083
    15  H    0.178162
    16  H    0.169402
    17  H    0.181069
    18  H    0.214974
    19  H    0.175604
    20  H    0.153940
    21  H    0.152301
    22  H    0.155361
    23  H    0.158222
    24  H    0.156109
    25  H    0.179099
    26  H    0.148173
 Sum of Mulliken charges =  -0.00000

 Dipole moment (field-independent basis, Debye):
    X=              1.1160    Y=             -2.2711    Z=             -2.9109  Tot=              3.8570
 Quadrupole moment (field-independent basis, Debye-Ang):
   XX=            -89.9716   YY=            -94.6726   ZZ=            -97.7869
   XY=            -14.1969   XZ=             -2.9101   YZ=             -7.8891

 Normal termination of Gaussian 16 at Tue Sep 17 11:41:59 2024.
