 Gaussian 16, Revision C.02,

 ----------------------------------------------------------------------
 #p B3LYP/6-31G(d,p) EmpiricalDispersion=GD3BJ opt freq scf(xqc,tight)
 integral(grid=ultrafine)
 ----------------------------------------------------------------------

 ----------------------------------
 opt-freq conformers_unique/conf_ai
 ----------------------------------
 Symbolic Z-matrix:
 Charge =  0 Multiplicity = 1

 SCF Done:  E(RB3LYP) =  -1163.67742327     A.U. after   15 cycles
 SCF Done:  E(RB3LYP) =  -1163.67907374     A.U. after   13 cycles
 SCF Done:  E(RB3LYP) =  -1163.67917864     A.U. after   11 cycles
 SCF Done:  E(RB3LYP) =  -1163.67911108     A.U. after   13 cycles
 SCF Done:  E(RB3LYP) =  -1163.67932476     A.U. after   12 cycles
 SCF Done:  E(RB3LYP) =  -1163.67934792     A.U. after   11 cycles
 SCF Done:  E(RB3LYP) =  -1163.67935487     A.U. after   11 cycles
 SCF Done:  E(RB3LYP) =  -1163.67935517     A.U. after    8 cycles
 Optimization completed.
    -- Stationary point found.
 Normal termination of Gaussian 16 at Tue Sep 17 09:44:24 2024.

 ----------------------------------------------------------------------
 #P Geom=AllCheck Guess=TCheck SCRF=Check GenChk RB3LYP/6-31G(d,p) Freq
 ----------------------------------------------------------------------

 Structure from the checkpoint file:  "smiles_00058_conf_8.chk"
 ----------------------------------
 opt-freq conformers_unique/conf_ai
 ----------------------------------
 Charge =  0 Multiplicity = 1

 SCF Done:  E(RB3LYP) =  -1163.67935517     A.U. after    1 cycles

                      1                      2                      3
                      A                      A                      A
 Frequencies --     27.3300                27.8298                79.9888
 Red. masses --      7.3001                 5.5922                 4.3755
 Frc consts  --      0.0032                 0.0026                 0.0165
 IR Inten    --      0.0000                 3.5399                 0.3559

                      4                      5                      6
                      A                      A                      A
 Frequencies --     98.1787               111.4433               126.8580
 Red. masses --      4.9837                 2.3245                 1.1368
 Frc consts  --      0.0283                 0.0170                 0.0108
 IR Inten    --      1.5034                 0.0000                 0.4266

                      7                      8                      9
                      A                      A                      A
 Frequencies --    129.5391               132.6966               177.0921
 Red. masses --      1.2929                 7.3377                 5.2922
 Frc consts  --      0.0128                 0.0761                 0.0978
 IR Inten    --      0.0001                 0.0000                10.8269

                     10                     11                     12
                      A                      A                      A
 Frequencies --    197.4829               226.5692               256.9275
 Red. masses --      3.9747                 7.0575                 5.4355
 Frc consts  --      0.0913                 0.2135                 0.2114
 IR Inten    --      0.0000                 0.1625                 9.2764

                     13                     14                     15
                      A                      A                      A
 Frequencies --    267.5177               325.8515               353.5156
 Red. masses --      6.7773                 4.6068                 6.6927
 Frc consts  --      0.2858                 0.2882                 0.4928
 IR Inten    --      1.8708                 0.0000                25.8418

                     16                     17                     18
                      A                      A                      A
 Frequencies --    379.9887               400.2191               489.8693
 Red. masses --     13.5137                 6.7037                 9.8223
 Frc consts  --      1.1497                 0.6326                 1.3887
 IR Inten    --      0.1609                 0.0379                 2.7589

                     19                     20                     21
                      A                      A                      A
 Frequencies --    506.8266               534.9209               560.5575
 Red. masses --      6.2844                 6.5605                 6.0818
 Frc consts  --      0.9511                 1.1060                 1.1260
 IR Inten    --      0.0002                16.6044                 1.2562

                     22                     23                     24
                      A                      A                      A
 Frequencies --    699.0279               747.0812               770.9816
 Red. masses --      6.4754                 6.8104                 7.3360
 Frc consts  --      1.8643                 2.2395                 2.5692
 IR Inten    --     10.9537                23.2169                87.6038

                     25                     26                     27
                      A                      A                      A
 Frequencies --    784.8926               791.2496               863.9059
 Red. masses --      4.3624                 7.2723                 7.2590
 Frc consts  --      1.5834                 2.6826                 3.1920
 IR Inten    --     13.6793                 0.0002                13.1850

                     28                     29                     30
                      A                      A                      A
 Frequencies --    890.9829               914.9818               935.3989
 Red. masses --      5.9539                 1.5767                 1.4098
 Frc consts  --      2.7848                 0.7777                 0.7268
 IR Inten    --      2.2583                15.4086                 0.0000

                     31                     32                     33
                      A                      A                      A
 Frequencies --   1006.0934              1014.2718              1051.2921
 Red. masses --      7.3102                 7.4263                 9.1613
 Frc consts  --      4.3597                 4.5012                 5.9656
 IR Inten    --     31.5760                 1.0600                86.1411

                     34                     35                     36
                      A                      A                      A
 Frequencies --   1124.0349              1180.4344              1180.4656
 Red. masses --      1.5593                 1.2761                 1.2762
 Frc consts  --      1.1607                 1.0477                 1.0478
 IR Inten    --      3.7561                 0.0088                 1.6873

                     37                     38                     39
                      A                      A                      A
 Frequencies --   1187.0722              1189.9036              1220.1694
 Red. masses --      1.6193                 2.7629                 1.5294
 Frc consts  --      1.3444                 2.3048                 1.3415
 IR Inten    --     47.9350                 0.5352                32.9553

                     40                     41                     42
                      A                      A                      A
 Frequencies --   1225.1024              1264.8894              1317.1483
 Red. masses --      2.2666                 4.8358                 5.3736
 Frc consts  --      2.0043                 4.5585                 5.4927
 IR Inten    --      4.3635              1082.3463                52.7980

                     43                     44                     45
                      A                      A                      A
 Frequencies --   1325.6996              1429.5986              1470.1350
 Red. masses --     11.4473                 3.5942                 2.3553
 Frc consts  --     11.8534                 4.3279                 2.9993
 IR Inten    --      2.7692                 0.0275                 5.8544

                     46                     47                     48
                      A                      A                      A
 Frequencies --   1481.1867              1485.5241              1495.1894
 Red. masses --      1.2023                 1.6239                 1.0461
 Frc consts  --      1.5541                 2.1114                 1.3779
 IR Inten    --     15.3987                 1.6132                 0.0111

                     49                     50                     51
                      A                      A                      A
 Frequencies --   1495.2008              1509.7162              1509.8710
 Red. masses --      1.0461                 1.0504                 1.0514
 Frc consts  --      1.3779                 1.4105                 1.4122
 IR Inten    --     13.4312                11.5694                 6.7518

                     52                     53                     54
                      A                      A                      A
 Frequencies --   1607.6358              1621.2585              1837.6142
 Red. masses --      6.0620                 9.9818                12.0784
 Frc consts  --      9.2309                15.4584                24.0308
 IR Inten    --    150.0622                 4.8762                 1.9904

                     55                     56                     57
                      A                      A                      A
 Frequencies --   1845.7153              3068.1824              3068.3329
 Red. masses --     12.0579                 1.0296                 1.0296
 Frc consts  --     24.2020                 5.7105                 5.7113
 IR Inten    --    358.7450                62.5168                 5.8038

                     58                     59                     60
                      A                      A                      A
 Frequencies --   3147.0282              3147.0495              3180.2362
 Red. masses --      1.1071                 1.1071                 1.1074
 Frc consts  --      6.4601                 6.4602                 6.5989
 IR Inten    --      0.0729                34.7550                14.0429

                     61                     62                     63
                      A                      A                      A
 Frequencies --   3180.2626              3259.6070              3259.9386
 Red. masses --      1.1074                 1.0934                 1.0922
 Frc consts  --      6.5990                 6.8447                 6.8386
 IR Inten    --     14.3156                 0.6211                 3.6480

 - Thermochemistry -
 -------------------
 Temperature   298.150 Kelvin.  Pressure   1.00000 Atm.
 Atom     1 has atomic number  6 and mass  12.00000

 Molecular mass:   229.01419 amu.
 Principal axes and moments of inertia in atomic units:
                           1         2         3
     Eigenvalues --  2773.507665344.717718095.50306
           X            1.00000   0.00000  -0.00002
           Y           -0.00000   1.00000   0.00000
           Z            0.00002  -0.00000   1.00000
 This molecule is an asymmetric top.
 Rotational symmetry number  1.
 Warning -- assumption of classical behavior for rotation
           may cause significant error
 Rotational temperatures (Kelvin)      0.03123     0.01621     0.01070
 Rotational constants (GHZ):           0.65071     0.33767     0.22293
 Zero-point vibrational energy     431825.4 (Joules/Mol)
                                  103.20874 (Kcal/Mol)
 Warning -- explicit consideration of  21 degrees of freedom as
           vibrations may cause significant error
 Vibrational temperatures:     39.32    40.04   115.09   141.26   160.34
          (Kelvin)            182.52   186.38   190.92   254.80   284.13
                              325.98   369.66   384.90   468.83   508.63
                              546.72   575.83   704.81   729.21   769.63
                              806.52  1005.75  1074.88  1109.27  1129.29
                             1138.43  1242.97  1281.93  1316.45  1345.83
                             1447.54  1459.31  1512.57  1617.24  1698.38
                             1698.43  1707.93  1712.01  1755.55  1762.65
                             1819.89  1895.08  1907.39  2056.87  2115.20
                             2131.10  2137.34  2151.24  2151.26  2172.14
                             2172.37  2313.03  2332.63  2643.92  2655.57
                             4414.43  4414.65  4527.87  4527.90  4575.65
                             4575.69  4689.85  4690.32

 Zero-point correction=                           0.164474 (Hartree/Particle)
 Thermal correction to Energy=                    0.179159
 Thermal correction to Enthalpy=                  0.180103
 Thermal correction to Gibbs Free Energy=         0.120267
 Sum of electronic and zero-point Energies=          -1163.514882
 Sum of electronic and thermal Energies=             -1163.500196
 Sum of electronic and thermal Enthalpies=           -1163.499252
 Sum of electronic and thermal Free Energies=        -1163.559088

                     E (Thermal)             CV                S
                      KCal/Mol        Cal/Mol-Kelvin    Cal/Mol-Kelvin
 Total                  112.424             50.914            125.935
 Electronic               0.000              0.000              0.000
 Translational            0.889              2.981             42.188
 Rotational               0.889              2.981             33.150
 Vibrational            110.646             44.952             50.597
 Vibration     1          0.593              1.984              6.014
 Vibration     2          0.593              1.984              5.978
 Vibration     3          0.600              1.963              3.891
 Vibration     4          0.604              1.950              3.490
 Vibration     5          0.607              1.940              3.244
 Vibration     6          0.611              1.926              2.993
 Vibration     7          0.612              1.924              2.953
 Vibration     8          0.613              1.921              2.907
 Vibration     9          0.628              1.871              2.359
 Vibration    10          0.637              1.843              2.156
 Vibration    11          0.650              1.801              1.906
 Vibration    12          0.667              1.751              1.683
 Vibration    13          0.673              1.733              1.612
 Vibration    14          0.710              1.624              1.281
 Vibration    15          0.730              1.568              1.150
 Vibration    16          0.750              1.513              1.039
 Vibration    17          0.766              1.470              0.962
 Vibration    18          0.846              1.272              0.684
 Vibration    19          0.862              1.235              0.641
 Vibration    20          0.890              1.173              0.576
 Vibration    21          0.916              1.117              0.523

                           ! Non-Optimized Parameters !
 Normal termination of Gaussian 16 at Tue Sep 17 09:46:31 2024.

 ----------------------------------------------------------------------
 #p M062X/def2tzvp geom=check guess=read scf(xqc,tight) integral(grid=u
 ltrafine) scrf(SMD, solvent=1,4-Dioxane) polar prop=efg volume
 ----------------------------------------------------------------------

 ---
 spe
 ---
 Structure from the checkpoint file:  "smiles_00058_conf_8.chk"
 Charge =  0 Multiplicity = 1

 SCF Done:  E(RM062X) =  -1163.64118534     A.U. after   12 cycles

  Exact polarizability:     197.018      -0.000     182.387      -0.002      -0.009      87.519
 Approx polarizability:     186.870      -0.000     210.391       0.003      -0.025     108.515

 Normal termination of Gaussian 16 at Tue Sep 17 10:57:28 2024.
 Gaussian 16:  ES64L-G16RevC.02  7-Dec-2021

 ----------------------------------------------------------------------
 #p M062X/def2tzvp geom=check guess=read scf(xqc,tight) integral(grid=u
 ltrafine) scrf(SMD, solvent=1,4-Dioxane) nmr=giao
 ----------------------------------------------------------------------

 ---
 spe
 ---
 Structure from the checkpoint file:  "smiles_00058_conf_8.chk"
 Charge =  0 Multiplicity = 1

                         Standard orientation:
 ---------------------------------------------------------------------
 Center     Atomic      Atomic             Coordinates (Angstroms)
 Number     Number       Type             X           Y           Z
 ---------------------------------------------------------------------
      1          6           0        4.751668   -1.052539   -0.001420
      2          8           0        3.500813   -0.344870   -0.002076
      3          6           0        2.401671   -1.134856    0.001089
      4          8           0        2.436923   -2.341048    0.003079
      5          6           0        1.142452   -0.305961    0.000386
      6          6           0        1.204446    1.093522    0.000426
      7          6           0       -0.000003    1.787535    0.000175
      8         17           0       -0.000009    3.535644    0.000481
      9          6           0       -1.204450    1.093518   -0.000290
     10          6           0       -1.142454   -0.305962   -0.000397
     11          6           0       -2.401665   -1.134868   -0.000957
     12          8           0       -2.436913   -2.341061   -0.000388
     13          8           0       -3.500809   -0.344877   -0.000691
     14          6           0       -4.751663   -1.052543    0.000190
     15          7           0        0.000002   -0.995872    0.000022
     16          1           0        5.523922   -0.284506    0.000494
     17          1           0        4.831184   -1.684278    0.886068
     18          1           0        4.833456   -1.681719   -0.890569
     19          1           0        2.155672    1.606977    0.000597
     20          1           0       -2.155676    1.606970   -0.000642
     21          1           0       -4.830292   -1.685549    0.886859
     22          1           0       -5.523912   -0.284513    0.004018
     23          1           0       -4.834343   -1.680454   -0.889768
 ---------------------------------------------------------------------

 SCF Done:  E(RM062X) =  -1163.64118534     A.U. after    1 cycles

      1  C    Isotropic =   130.2478   Anisotropy =    73.0234

      2  O    Isotropic =   132.4402   Anisotropy =   174.0683

      3  C    Isotropic =     4.7030   Anisotropy =    92.4162

      4  O    Isotropic =  -154.7753   Anisotropy =   743.0506

      5  C    Isotropic =    12.1272   Anisotropy =   173.0834

      6  C    Isotropic =    34.5624   Anisotropy =   191.1432

      7  C    Isotropic =     7.2282   Anisotropy =   172.5487

      8  Cl   Isotropic =   654.5556   Anisotropy =   493.1882

      9  C    Isotropic =    34.5626   Anisotropy =   191.1427

     10  C    Isotropic =    12.1272   Anisotropy =   173.0833

     11  C    Isotropic =     4.7033   Anisotropy =    92.4159

     12  O    Isotropic =  -154.7732   Anisotropy =   743.0497

     13  O    Isotropic =   132.4409   Anisotropy =   174.0678

     14  C    Isotropic =   130.2482   Anisotropy =    73.0229

     15  N    Isotropic =  -156.8651   Anisotropy =   681.8353

     16  H    Isotropic =    27.9593   Anisotropy =     7.4904

     17  H    Isotropic =    27.8561   Anisotropy =     8.1245

     18  H    Isotropic =    27.8666   Anisotropy =     8.1489

     19  H    Isotropic =    22.6874   Anisotropy =    13.2948

     20  H    Isotropic =    22.6874   Anisotropy =    13.2948

     21  H    Isotropic =    27.8567   Anisotropy =     8.1263

     22  H    Isotropic =    27.9593   Anisotropy =     7.4904

     23  H    Isotropic =    27.8660   Anisotropy =     8.1472

 The electronic state is 1-A.
 Alpha  occ. eigenvalues -- -102.66837 -19.68234 -19.68234 -19.62749 -19.62749
 Alpha  occ. eigenvalues --  -14.77953 -10.68556 -10.68555 -10.64173 -10.61669
 Alpha  occ. eigenvalues --  -10.61667 -10.59240 -10.59240 -10.58524 -10.58523
 Alpha  occ. eigenvalues --   -9.83077  -7.55281  -7.54762  -7.54736  -1.24231
 Alpha  occ. eigenvalues --   -1.24185  -1.15101  -1.15014  -1.08818  -1.00104
 Alpha  occ. eigenvalues --   -0.91716  -0.89897  -0.84489  -0.82104  -0.76778
 Alpha  occ. eigenvalues --   -0.73970  -0.66858  -0.66108  -0.63647  -0.60292
 Alpha  occ. eigenvalues --   -0.59028  -0.58910  -0.57836  -0.57405  -0.56215
 Alpha  occ. eigenvalues --   -0.55448  -0.51870  -0.51554  -0.49988  -0.49674
 Alpha  occ. eigenvalues --   -0.47866  -0.47821  -0.47056  -0.44300  -0.44021
 Alpha  occ. eigenvalues --   -0.43712  -0.40324  -0.38644  -0.38610  -0.37533
 Alpha  occ. eigenvalues --   -0.36543  -0.35696  -0.34780  -0.34632
 Alpha virt. eigenvalues --   -0.04735  -0.04145   0.04966   0.05000   0.08047
 Alpha virt. eigenvalues --    0.08272   0.10325   0.10590   0.11087   0.11569
 Alpha virt. eigenvalues --    0.12199   0.12975   0.15200   0.15380   0.15669

 Mulliken charges:
               1
     1  C   -0.272010
     2  O   -0.275821
     3  C    0.323592
     4  O   -0.311031
     5  C    0.090713
     6  C   -0.156861
     7  C    0.082659
     8  Cl  -0.055303
     9  C   -0.156859
    10  C    0.090713
    11  C    0.323593
    12  O   -0.311030
    13  O   -0.275820
    14  C   -0.272013
    15  N   -0.189221
    16  H    0.157714
    17  H    0.163991
    18  H    0.164007
    19  H    0.196638
    20  H    0.196638
    21  H    0.164001
    22  H    0.157714
    23  H    0.163997
 Sum of Mulliken charges =  -0.00000

 Dipole moment (field-independent basis, Debye):
    X=             -0.0000    Y=              4.4937    Z=             -0.0026  Tot=              4.4937
 Quadrupole moment (field-independent basis, Debye-Ang):
   XX=            -59.5995   YY=           -109.2173   ZZ=            -91.3329
   XY=              0.0000   XZ=             -0.0087   YZ=              0.0149

 Normal termination of Gaussian 16 at Tue Sep 17 11:24:02 2024.
