 Gaussian 16, Revision C.02,

 ----------------------------------------------------------------------
 #p B3LYP/6-31G(d,p) EmpiricalDispersion=GD3BJ opt freq scf(xqc,tight)
 integral(grid=ultrafine)
 ----------------------------------------------------------------------

 ----------------------------------
 opt-freq conformers_unique/conf_ab
 ----------------------------------
 Symbolic Z-matrix:
 Charge =  0 Multiplicity = 1

 SCF Done:  E(RB3LYP) =  -3233.09488113     A.U. after   14 cycles
 SCF Done:  E(RB3LYP) =  -3233.09634445     A.U. after   12 cycles
 SCF Done:  E(RB3LYP) =  -3233.09667711     A.U. after   11 cycles
 SCF Done:  E(RB3LYP) =  -3233.09699978     A.U. after   12 cycles
 SCF Done:  E(RB3LYP) =  -3233.09710718     A.U. after   10 cycles
 SCF Done:  E(RB3LYP) =  -3233.09714143     A.U. after   10 cycles
 SCF Done:  E(RB3LYP) =  -3233.09714919     A.U. after    9 cycles
 SCF Done:  E(RB3LYP) =  -3233.09714947     A.U. after    8 cycles
 SCF Done:  E(RB3LYP) =  -3233.09714957     A.U. after    7 cycles
 SCF Done:  E(RB3LYP) =  -3233.09714971     A.U. after    7 cycles
 SCF Done:  E(RB3LYP) =  -3233.09714975     A.U. after    6 cycles
 SCF Done:  E(RB3LYP) =  -3233.09714976     A.U. after    6 cycles
 Optimization completed.
    -- Stationary point found.
 Normal termination of Gaussian 16 at Tue Sep 17 09:48:34 2024.

 ----------------------------------------------------------------------
 #P Geom=AllCheck Guess=TCheck SCRF=Check GenChk RB3LYP/6-31G(d,p) Freq
 ----------------------------------------------------------------------

 Structure from the checkpoint file:  "smiles_00060_conf_1.chk"
 ----------------------------------
 opt-freq conformers_unique/conf_ab
 ----------------------------------
 Charge =  0 Multiplicity = 1

 SCF Done:  E(RB3LYP) =  -3233.09714976     A.U. after    1 cycles

                      1                      2                      3
                      A                      A                      A
 Frequencies --     32.1052                65.7273                93.3472
 Red. masses --      5.0254                 3.2623                 3.6079
 Frc consts  --      0.0031                 0.0083                 0.0185
 IR Inten    --      0.1287                 0.0896                 0.2009

                      4                      5                      6
                      A                      A                      A
 Frequencies --    117.9044               148.1909               159.0843
 Red. masses --     11.9164                 2.9831                 8.6524
 Frc consts  --      0.0976                 0.0386                 0.1290
 IR Inten    --      0.0542                 0.0501                 0.3700

                      7                      8                      9
                      A                      A                      A
 Frequencies --    194.7530               237.0554               249.9148
 Red. masses --      4.8767                11.3780                 6.0684
 Frc consts  --      0.1090                 0.3767                 0.2233
 IR Inten    --      0.8949                 0.7488                 0.9299

                     10                     11                     12
                      A                      A                      A
 Frequencies --    287.5060               313.1643               349.2776
 Red. masses --     11.3548                 4.1302                 7.8156
 Frc consts  --      0.5530                 0.2387                 0.5618
 IR Inten    --      0.3772                 1.0391                 0.4485

                     13                     14                     15
                      A                      A                      A
 Frequencies --    374.0740               456.5013               517.6034
 Red. masses --      7.8150                 3.1323                 5.3457
 Frc consts  --      0.6443                 0.3846                 0.8438
 IR Inten    --      0.2735                 2.6399                 1.6440

                     16                     17                     18
                      A                      A                      A
 Frequencies --    544.7152               568.0668               610.3607
 Red. masses --      4.9197                 6.4664                 4.6727
 Frc consts  --      0.8601                 1.2295                 1.0256
 IR Inten    --      0.6659                 3.1162                 1.1139

                     19                     20                     21
                      A                      A                      A
 Frequencies --    627.8278               669.7783               685.4296
 Red. masses --      3.8379                 2.6756                 6.4710
 Frc consts  --      0.8913                 0.7072                 1.7912
 IR Inten    --      0.5536                 3.4662                 0.6050

                     22                     23                     24
                      A                      A                      A
 Frequencies --    767.8326               793.8490               806.8958
 Red. masses --      1.8115                 1.3061                 3.4434
 Frc consts  --      0.6292                 0.4850                 1.3209
 IR Inten    --     22.7364                 1.3006                42.2247

                     25                     26                     27
                      A                      A                      A
 Frequencies --    828.5584               867.8901               872.4449
 Red. masses --      1.4703                 7.8438                 1.4212
 Frc consts  --      0.5947                 3.4810                 0.6374
 IR Inten    --     31.1818                45.8743                13.4679

                     28                     29                     30
                      A                      A                      A
 Frequencies --    913.1155               931.8641               963.8940
 Red. masses --      2.1627                 2.5162                 1.3805
 Frc consts  --      1.0624                 1.2874                 0.7557
 IR Inten    --      6.1746                 1.0648                 4.5884

                     31                     32                     33
                      A                      A                      A
 Frequencies --    978.5349              1026.0054              1078.4979
 Red. masses --      2.7388                 3.2885                 2.0126
 Frc consts  --      1.5451                 2.0396                 1.3792
 IR Inten    --     29.0508                29.3137                 6.9558

                     34                     35                     36
                      A                      A                      A
 Frequencies --   1107.7745              1161.8177              1172.1705
 Red. masses --      2.8056                 2.3324                 3.2801
 Frc consts  --      2.0285                 1.8549                 2.6554
 IR Inten    --     62.9179                17.8655               176.1542

                     37                     38                     39
                      A                      A                      A
 Frequencies --   1203.9830              1230.9272              1254.4270
 Red. masses --      1.3459                 1.4805                 1.3099
 Frc consts  --      1.1495                 1.3217                 1.2144
 IR Inten    --      2.0729                63.3373                 0.8220

                     40                     41                     42
                      A                      A                      A
 Frequencies --   1256.6713              1266.1789              1270.2193
 Red. masses --      1.2085                 3.2084                 1.3038
 Frc consts  --      1.1244                 3.0306                 1.2394
 IR Inten    --      0.8077                92.4152                 0.8745

                     43                     44                     45
                      A                      A                      A
 Frequencies --   1287.3349              1316.6882              1338.4666
 Red. masses --      1.5311                 1.5296                 5.9719
 Frc consts  --      1.4950                 1.5624                 6.3035
 IR Inten    --      8.6961                 1.8600                17.8313

                     46                     47                     48
                      A                      A                      A
 Frequencies --   1381.1043              1403.1690              1476.5514
 Red. masses --      4.4613                 1.5826                 5.5584
 Frc consts  --      5.0137                 1.8359                 7.1400
 IR Inten    --    128.5981                46.2645                43.0073

                     49                     50                     51
                      A                      A                      A
 Frequencies --   1486.7007              1501.1892              1525.2624
 Red. masses --      1.0947                 1.0868                 1.1581
 Frc consts  --      1.4255                 1.4430                 1.5874
 IR Inten    --      1.1772                 5.5394                23.4995

                     52                     53                     54
                      A                      A                      A
 Frequencies --   1543.1798              1642.2645              1670.6143
 Red. masses --      4.9184                 8.6603                 8.4946
 Frc consts  --      6.9009                13.7616                13.9683
 IR Inten    --    332.7101               121.0916               109.2394

                     55                     56                     57
                      A                      A                      A
 Frequencies --   3039.3499              3075.6440              3081.0529
 Red. masses --      1.0858                 1.0575                 1.0585
 Frc consts  --      5.9095                 5.8939                 5.9204
 IR Inten    --     24.4993                35.2413                33.6278

                     58                     59                     60
                      A                      A                      A
 Frequencies --   3084.1473              3127.7254              3136.5288
 Red. masses --      1.0623                 1.1085                 1.1093
 Frc consts  --      5.9534                 6.3889                 6.4301
 IR Inten    --     13.4667                 8.1877                18.1823

                     61                     62                     63
                      A                      A                      A
 Frequencies --   3147.3141              3240.1828              3257.7879
 Red. masses --      1.1083                 1.0920                 1.0910
 Frc consts  --      6.4682                 6.7549                 6.8222
 IR Inten    --     44.5657                 1.1189                 0.0709

 - Thermochemistry -
 -------------------
 Temperature   298.150 Kelvin.  Pressure   1.00000 Atm.
 Atom     1 has atomic number  9 and mass  18.99840

 Molecular mass:   261.98048 amu.
 Principal axes and moments of inertia in atomic units:
                           1         2         3
     Eigenvalues --  1908.039387564.230529277.37202
           X            0.99974   0.02262  -0.00348
           Y           -0.02260   0.99973   0.00577
           Z            0.00361  -0.00569   0.99998
 This molecule is an asymmetric top.
 Rotational symmetry number  1.
 Warning -- assumption of classical behavior for rotation
           may cause significant error
 Rotational temperatures (Kelvin)      0.04539     0.01145     0.00934
 Rotational constants (GHZ):           0.94586     0.23859     0.19453
 Zero-point vibrational energy     447512.2 (Joules/Mol)
                                  106.95798 (Kcal/Mol)
 Warning -- explicit consideration of  18 degrees of freedom as
           vibrations may cause significant error
 Vibrational temperatures:     46.19    94.57   134.31   169.64   213.21
          (Kelvin)            228.89   280.21   341.07   359.57   413.66
                              450.57   502.53   538.21   656.80   744.72
                              783.72   817.32   878.17   903.30   963.66
                              986.18  1104.74  1142.17  1160.94  1192.11
                             1248.70  1255.25  1313.77  1340.74  1386.83
                             1407.89  1476.19  1551.72  1593.84  1671.60
                             1686.49  1732.26  1771.03  1804.84  1808.07
                             1821.75  1827.56  1852.19  1894.42  1925.75
                             1987.10  2018.85  2124.43  2139.03  2159.88
                             2194.51  2220.29  2362.85  2403.64  4372.95
                             4425.17  4432.95  4437.40  4500.10  4512.77
                             4528.28  4661.90  4687.23

 Zero-point correction=                           0.170448 (Hartree/Particle)
 Thermal correction to Energy=                    0.183062
 Thermal correction to Enthalpy=                  0.184006
 Thermal correction to Gibbs Free Energy=         0.129426
 Sum of electronic and zero-point Energies=          -3232.926701
 Sum of electronic and thermal Energies=             -3232.914088
 Sum of electronic and thermal Enthalpies=           -3232.913143
 Sum of electronic and thermal Free Energies=        -3232.967724

                     E (Thermal)             CV                S
                      KCal/Mol        Cal/Mol-Kelvin    Cal/Mol-Kelvin
 Total                  114.873             46.968            114.875
 Electronic               0.000              0.000              0.000
 Translational            0.889              2.981             42.589
 Rotational               0.889              2.981             33.259
 Vibrational            113.096             41.006             39.027
 Vibration     1          0.594              1.983              5.695
 Vibration     2          0.597              1.971              4.277
 Vibration     3          0.602              1.954              3.589
 Vibration     4          0.608              1.934              3.134
 Vibration     5          0.618              1.905              2.695
 Vibration     6          0.621              1.892              2.561
 Vibration     7          0.635              1.847              2.182
 Vibration     8          0.656              1.784              1.825
 Vibration     9          0.663              1.763              1.731
 Vibration    10          0.685              1.697              1.489
 Vibration    11          0.701              1.649              1.346
 Vibration    12          0.727              1.577              1.169
 Vibration    13          0.745              1.525              1.063
 Vibration    14          0.815              1.347              0.776
 Vibration    15          0.873              1.211              0.616
 Vibration    16          0.900              1.151              0.555
 Vibration    17          0.924              1.100              0.508
 Vibration    18          0.969              1.010              0.432

 Optimization completed.
    -- Stationary point found.
 Normal termination of Gaussian 16 at Tue Sep 17 09:50:51 2024.

 ----------------------------------------------------------------------
 #p M062X/def2tzvp geom=check guess=read scf(xqc,tight) integral(grid=u
 ltrafine) scrf(SMD, solvent=1,4-Dioxane) polar prop=efg volume
 ----------------------------------------------------------------------

 ---
 spe
 ---
 Structure from the checkpoint file:  "smiles_00060_conf_1.chk"
 Charge =  0 Multiplicity = 1

 SCF Done:  E(RM062X) =  -3235.54708561     A.U. after   12 cycles

  Exact polarizability:     215.351      -6.098     157.920       3.596       1.353     102.224
 Approx polarizability:     204.894      -5.094     185.091       5.225      -0.065     122.684

 Normal termination of Gaussian 16 at Tue Sep 17 11:03:39 2024.
 Gaussian 16:  ES64L-G16RevC.02  7-Dec-2021

 ----------------------------------------------------------------------
 #p M062X/def2tzvp geom=check guess=read scf(xqc,tight) integral(grid=u
 ltrafine) scrf(SMD, solvent=1,4-Dioxane) nmr=giao
 ----------------------------------------------------------------------

 ---
 spe
 ---
 Structure from the checkpoint file:  "smiles_00060_conf_1.chk"
 Charge =  0 Multiplicity = 1

                         Standard orientation:
 ---------------------------------------------------------------------
 Center     Atomic      Atomic             Coordinates (Angstroms)
 Number     Number       Type             X           Y           Z
 ---------------------------------------------------------------------
      1          9           0        0.349390    3.178401   -0.122961
      2          6           0        0.331453    1.835193   -0.116979
      3          6           0       -0.884063    1.167109   -0.192670
      4          6           0       -0.884162   -0.233131   -0.183362
      5          8           0       -2.007451   -0.996232   -0.254515
      6          6           0       -3.262478   -0.347263   -0.403685
      7          6           0       -3.902553    0.331160    0.833503
      8          6           0       -5.248701   -0.317684    0.412487
      9          6           0       -4.445723   -1.325362   -0.454775
     10          6           0        0.324680   -0.936230   -0.094995
     11          6           0        1.522918   -0.237891   -0.018450
     12         35           0        3.171589   -1.169910    0.100154
     13          6           0        1.541186    1.155592   -0.029418
     14          9           0        2.687848    1.845646    0.044082
     15          1           0       -1.791433    1.751532   -0.246465
     16          1           0       -3.235137    0.319883   -1.274735
     17          1           0       -3.504833   -0.116731    1.748399
     18          1           0       -3.853744    1.419778    0.915528
     19          1           0       -5.853371    0.357910   -0.198527
     20          1           0       -5.876636   -0.728201    1.205444
     21          1           0       -4.197405   -2.229605    0.107347
     22          1           0       -4.834717   -1.605016   -1.436244
     23          1           0        0.310785   -2.018233   -0.090043
 ---------------------------------------------------------------------

 SCF Done:  E(RM062X) =  -3235.54708561     A.U. after    1 cycles

      1  F    Isotropic =   313.7984   Anisotropy =   145.3701

      2  C    Isotropic =    12.3580   Anisotropy =   112.5764

      3  C    Isotropic =    67.6850   Anisotropy =   146.7088

      4  C    Isotropic =     9.5872   Anisotropy =   156.6273

      5  O    Isotropic =   165.1710   Anisotropy =    79.5327

      6  C    Isotropic =   111.6288   Anisotropy =    67.6575

      7  C    Isotropic =   153.7313   Anisotropy =    31.4880

      8  C    Isotropic =   174.1669   Anisotropy =    16.9902

      9  C    Isotropic =   155.9755   Anisotropy =    33.3688

     10  C    Isotropic =    49.0128   Anisotropy =   138.6102

     11  C    Isotropic =    38.0693   Anisotropy =   134.1952

     12  Br   Isotropic =  2160.7636   Anisotropy =  1066.8894

     13  C    Isotropic =    23.1642   Anisotropy =   103.9737

     14  F    Isotropic =   325.6212   Anisotropy =   134.9802

     15  H    Isotropic =    24.7504   Anisotropy =     9.7131

     16  H    Isotropic =    27.4039   Anisotropy =     4.2673

     17  H    Isotropic =    29.9839   Anisotropy =     4.2237

     18  H    Isotropic =    29.3822   Anisotropy =     8.0382

     19  H    Isotropic =    30.2199   Anisotropy =     9.1436

     20  H    Isotropic =    30.1065   Anisotropy =    10.7420

     21  H    Isotropic =    29.5568   Anisotropy =     6.0436

     22  H    Isotropic =    29.4829   Anisotropy =     9.5612

     23  H    Isotropic =    24.3587   Anisotropy =    11.2674

 The electronic state is 1-A.
 Alpha  occ. eigenvalues -- -485.38693 -63.37160 -57.19117 -57.18866 -57.18855
 Alpha  occ. eigenvalues --  -25.27540 -25.27408 -19.66810 -10.65175 -10.64530
 Alpha  occ. eigenvalues --  -10.62855 -10.62089 -10.60351 -10.56483 -10.56270
 Alpha  occ. eigenvalues --  -10.54103 -10.54070 -10.53927  -9.03803  -6.86251
 Alpha  occ. eigenvalues --   -6.85319  -6.85281  -2.89628  -2.89295  -2.89254
 Alpha  occ. eigenvalues --   -2.88386  -2.88386  -1.39651  -1.38266  -1.20423
 Alpha  occ. eigenvalues --   -0.99749  -0.95619  -0.91528  -0.86598  -0.83797
 Alpha  occ. eigenvalues --   -0.77214  -0.76024  -0.73485  -0.70572  -0.66140
 Alpha  occ. eigenvalues --   -0.65131  -0.63297  -0.61783  -0.60114  -0.59822
 Alpha  occ. eigenvalues --   -0.56955  -0.56781  -0.54840  -0.52991  -0.52164
 Alpha  occ. eigenvalues --   -0.51920  -0.49337  -0.48502  -0.46060  -0.45759
 Alpha  occ. eigenvalues --   -0.44289  -0.42736  -0.40760  -0.40048  -0.38465
 Alpha  occ. eigenvalues --   -0.37577  -0.36419  -0.36077  -0.31240  -0.28920
 Alpha virt. eigenvalues --   -0.00110   0.02197   0.02277   0.06681   0.08359
 Alpha virt. eigenvalues --    0.09225   0.09870   0.10483   0.11775   0.12998
 Alpha virt. eigenvalues --    0.13537   0.15322   0.15724   0.16978   0.17567

 Mulliken charges:
               1
     1  F   -0.194650
     2  C    0.202056
     3  C   -0.275284
     4  C    0.305990
     5  O   -0.270649
     6  C   -0.068169
     7  C   -0.279554
     8  C   -0.265780
     9  C   -0.265044
    10  C   -0.273053
    11  C   -0.006993
    12  Br  -0.062856
    13  C    0.185420
    14  F   -0.188377
    15  H    0.191008
    16  H    0.163626
    17  H    0.160089
    18  H    0.147960
    19  H    0.151975
    20  H    0.144852
    21  H    0.158270
    22  H    0.144303
    23  H    0.194860
 Sum of Mulliken charges =  -0.00000

 Dipole moment (field-independent basis, Debye):
    X=             -4.6467    Y=             -0.9487    Z=             -0.1457  Tot=              4.7448
 Quadrupole moment (field-independent basis, Debye-Ang):
   XX=            -85.2378   YY=            -97.1777   ZZ=            -93.1298
   XY=             -4.7053   XZ=              0.6020   YZ=             -0.7460

 Normal termination of Gaussian 16 at Tue Sep 17 11:30:31 2024.
