 Gaussian 16, Revision C.02,

 ----------------------------------------------------------------------
 #p B3LYP/6-31G(d,p) EmpiricalDispersion=GD3BJ opt freq scf(xqc,tight)
 integral(grid=ultrafine)
 ----------------------------------------------------------------------

 ----------------------------------
 opt-freq conformers_unique/conf_ab
 ----------------------------------
 Symbolic Z-matrix:
 Charge =  0 Multiplicity = 1

 SCF Done:  E(RB3LYP) =  -3150.41926687     A.U. after   14 cycles
 SCF Done:  E(RB3LYP) =  -3150.42068573     A.U. after   12 cycles
 SCF Done:  E(RB3LYP) =  -3150.42088068     A.U. after   11 cycles
 SCF Done:  E(RB3LYP) =  -3150.42109653     A.U. after   10 cycles
 SCF Done:  E(RB3LYP) =  -3150.42135711     A.U. after   12 cycles
 SCF Done:  E(RB3LYP) =  -3150.42146171     A.U. after   12 cycles
 SCF Done:  E(RB3LYP) =  -3150.42157380     A.U. after   10 cycles
 SCF Done:  E(RB3LYP) =  -3150.42221431     A.U. after   12 cycles
 SCF Done:  E(RB3LYP) =  -3150.42233510     A.U. after   13 cycles
 SCF Done:  E(RB3LYP) =  -3150.42254390     A.U. after   11 cycles
 SCF Done:  E(RB3LYP) =  -3150.42313787     A.U. after   11 cycles
 SCF Done:  E(RB3LYP) =  -3150.42323975     A.U. after   11 cycles
 SCF Done:  E(RB3LYP) =  -3150.42324031     A.U. after    8 cycles
 SCF Done:  E(RB3LYP) =  -3150.42323944     A.U. after    8 cycles
 SCF Done:  E(RB3LYP) =  -3150.42324078     A.U. after    8 cycles
 SCF Done:  E(RB3LYP) =  -3150.42324076     A.U. after    7 cycles
 SCF Done:  E(RB3LYP) =  -3150.42324080     A.U. after    7 cycles
 Optimization completed.
    -- Stationary point found.
 Normal termination of Gaussian 16 at Tue Sep 17 10:00:18 2024.

 ----------------------------------------------------------------------
 #P Geom=AllCheck Guess=TCheck SCRF=Check GenChk RB3LYP/6-31G(d,p) Freq
 ----------------------------------------------------------------------

 Structure from the checkpoint file:  "smiles_00034_conf_1.chk"
 ----------------------------------
 opt-freq conformers_unique/conf_ab
 ----------------------------------
 Charge =  0 Multiplicity = 1

 SCF Done:  E(RB3LYP) =  -3150.42324080     A.U. after    1 cycles

                      1                      2                      3
                      A                      A                      A
 Frequencies --     24.0364                33.7340                43.2155
 Red. masses --      4.0532                 2.6975                 2.7092
 Frc consts  --      0.0014                 0.0018                 0.0030
 IR Inten    --      0.0605                 0.0284                 0.3425

                      4                      5                      6
                      A                      A                      A
 Frequencies --     70.3172               105.5866               122.7719
 Red. masses --      3.7290                 2.9301                 2.8941
 Frc consts  --      0.0109                 0.0192                 0.0257
 IR Inten    --      0.3086                 0.3359                 1.2344

                      7                      8                      9
                      A                      A                      A
 Frequencies --    175.7753               183.8086               205.2872
 Red. masses --      3.0467                 4.5603                 3.9894
 Frc consts  --      0.0555                 0.0908                 0.0991
 IR Inten    --      3.6024                 1.1926                 0.8165

                     10                     11                     12
                      A                      A                      A
 Frequencies --    229.4969               253.8740               262.1856
 Red. masses --      3.2061                 1.2971                 1.4914
 Frc consts  --      0.0995                 0.0493                 0.0604
 IR Inten    --      0.8111                 0.1303                 1.4969

                     13                     14                     15
                      A                      A                      A
 Frequencies --    304.4968               321.8039               347.2286
 Red. masses --      4.5739                 3.5756                 2.8571
 Frc consts  --      0.2499                 0.2182                 0.2030
 IR Inten    --      0.4972                 5.4450                 2.0989

                     16                     17                     18
                      A                      A                      A
 Frequencies --    352.8643               448.9800               456.0851
 Red. masses --      4.1484                 3.1201                 3.5109
 Frc consts  --      0.3043                 0.3706                 0.4303
 IR Inten    --      7.4567                 2.1652                 3.0935

                     19                     20                     21
                      A                      A                      A
 Frequencies --    487.1300               530.8364               641.3429
 Red. masses --      4.8514                 5.0005                 5.0881
 Frc consts  --      0.6783                 0.8302                 1.2331
 IR Inten    --      7.1564                 1.0551                 7.7968

                     22                     23                     24
                      A                      A                      A
 Frequencies --    677.0146               700.1407               744.3769
 Red. masses --      6.6297                 3.2345                 3.6540
 Frc consts  --      1.7904                 0.9342                 1.1929
 IR Inten    --     21.4590                 9.2409                19.4791

                     25                     26                     27
                      A                      A                      A
 Frequencies --    800.0621               813.7644               824.0633
 Red. masses --      1.4330                 1.1890                 1.0962
 Frc consts  --      0.5405                 0.4639                 0.4386
 IR Inten    --     32.7259                 3.1316                 0.0553

                     28                     29                     30
                      A                      A                      A
 Frequencies --    854.7221               887.5993               912.5979
 Red. masses --      2.4187                 2.6771                 1.6980
 Frc consts  --      1.0411                 1.2426                 0.8332
 IR Inten    --      4.5939                11.2121                10.8276

                     31                     32                     33
                      A                      A                      A
 Frequencies --    937.3309               961.1246               995.4387
 Red. masses --      1.3412                 2.2464                 1.3200
 Frc consts  --      0.6943                 1.2226                 0.7707
 IR Inten    --      2.1213                10.4789                 1.6020

                     34                     35                     36
                      A                      A                      A
 Frequencies --   1017.3304              1030.1979              1037.4601
 Red. masses --      5.3530                 2.8262                 3.7826
 Frc consts  --      3.2641                 1.7672                 2.3988
 IR Inten    --      2.2340                 4.4879                38.6799

                     37                     38                     39
                      A                      A                      A
 Frequencies --   1087.8819              1098.2317              1110.1885
 Red. masses --      4.7402                 2.1202                 2.4911
 Frc consts  --      3.3053                 1.5066                 1.8090
 IR Inten    --    182.1086                17.2070                78.5776

                     40                     41                     42
                      A                      A                      A
 Frequencies --   1125.0738              1141.9712              1152.5331
 Red. masses --      1.6982                 2.2402                 2.8978
 Frc consts  --      1.2665                 1.7212                 2.2679
 IR Inten    --     61.5340                43.7240               111.5882

                     43                     44                     45
                      A                      A                      A
 Frequencies --   1192.9796              1194.0094              1210.1570
 Red. masses --      1.5105                 1.1312                 1.8752
 Frc consts  --      1.2666                 0.9502                 1.6180
 IR Inten    --      2.0415                12.6177                46.3996

                     46                     47                     48
                      A                      A                      A
 Frequencies --   1221.7835              1302.1495              1314.4636
 Red. masses --      2.5811                 1.1287                 1.4315
 Frc consts  --      2.2701                 1.1276                 1.4573
 IR Inten    --    114.3738                 0.4286                 4.8276

                     49                     50                     51
                      A                      A                      A
 Frequencies --   1329.6895              1353.6241              1375.3186
 Red. masses --      1.1408                 4.5523                 1.4098
 Frc consts  --      1.1884                 4.9144                 1.5711
 IR Inten    --     48.7983                 1.6301               100.6791

                     52                     53                     54
                      A                      A                      A
 Frequencies --   1396.2569              1406.2472              1414.3934
 Red. masses --      1.1882                 1.2299                 1.2596
 Frc consts  --      1.3648                 1.4330                 1.4846
 IR Inten    --      3.2850                 0.7445                 2.1446

                     55                     56                     57
                      A                      A                      A
 Frequencies --   1433.2538              1438.8155              1462.5264
 Red. masses --      1.3414                 1.3670                 2.6500
 Frc consts  --      1.6235                 1.6674                 3.3397
 IR Inten    --     17.6495                19.0883                24.6167

                     58                     59                     60
                      A                      A                      A
 Frequencies --   1498.2479              1499.6684              1506.5542
 Red. masses --      1.0415                 1.0428                 1.0705
 Frc consts  --      1.3774                 1.3819                 1.4315
 IR Inten    --      4.6141                 3.7744                 0.8981

                     61                     62                     63
                      A                      A                      A
 Frequencies --   1515.7559              1516.2456              1530.5683
 Red. masses --      1.4241                 1.4958                 1.0706
 Frc consts  --      1.9278                 2.0261                 1.4777
 IR Inten    --      7.6641                15.3198                 8.5133

                     64                     65                     66
                      A                      A                      A
 Frequencies --   1546.1438              1629.1806              1653.2814
 Red. masses --      1.0868                 6.2268                 6.3057
 Frc consts  --      1.5307                 9.7376                10.1550
 IR Inten    --      0.5630                22.3157                10.6581

                     67                     68                     69
                      A                      A                      A
 Frequencies --   3003.1790              3008.6650              3034.8737
 Red. masses --      1.0804                 1.0713                 1.0591
 Frc consts  --      5.7412                 5.7136                 5.7474
 IR Inten    --      8.0183                84.0985                27.6286

                     70                     71                     72
                      A                      A                      A
 Frequencies --   3051.8666              3053.0309              3078.5779
 Red. masses --      1.0378                 1.0351                 1.1039
 Frc consts  --      5.6951                 5.6848                 6.1645
 IR Inten    --     16.6437                21.0854                25.8089

                     73                     74                     75
                      A                      A                      A
 Frequencies --   3089.8671              3120.6691              3128.3673
 Red. masses --      1.0963                 1.1014                 1.1022
 Frc consts  --      6.1666                 6.3196                 6.3556
 IR Inten    --     32.5877                35.7701                26.5380

                     76                     77                     78
                      A                      A                      A
 Frequencies --   3132.6527              3155.6002              3193.0655
 Red. masses --      1.1038                 1.1018                 1.0886
 Frc consts  --      6.3821                 6.4644                 6.5396
 IR Inten    --     34.0573                18.1462                10.7897

                     79                     80                     81
                      A                      A                      A
 Frequencies --   3222.8231              3223.4321              3237.1503
 Red. masses --      1.0926                 1.0924                 1.0925
 Frc consts  --      6.6860                 6.6876                 6.7453
 IR Inten    --      2.0742                 1.6204                 3.1315

 - Thermochemistry -
 -------------------
 Temperature   298.150 Kelvin.  Pressure   1.00000 Atm.
 Atom     1 has atomic number  6 and mass  12.00000

 Molecular mass:   258.02554 amu.
 Principal axes and moments of inertia in atomic units:
                           1         2         3
     Eigenvalues --  1928.538177592.361788906.46204
           X            0.99959   0.02756  -0.00809
           Y           -0.02738   0.99941   0.02068
           Z            0.00866  -0.02045   0.99975
 This molecule is an asymmetric top.
 Rotational symmetry number  1.
 Warning -- assumption of classical behavior for rotation
           may cause significant error
 Rotational temperatures (Kelvin)      0.04491     0.01141     0.00972
 Rotational constants (GHZ):           0.93581     0.23770     0.20263
 Zero-point vibrational energy     635127.9 (Joules/Mol)
                                  151.79922 (Kcal/Mol)
 Warning -- explicit consideration of  20 degrees of freedom as
           vibrations may cause significant error
 Vibrational temperatures:     34.58    48.54    62.18   101.17   151.92
          (Kelvin)            176.64   252.90   264.46   295.36   330.19
                              365.27   377.23   438.10   463.00   499.58
                              507.69   645.98   656.20   700.87   763.76
                              922.75   974.07  1007.35  1070.99  1151.11
                             1170.83  1185.64  1229.75  1277.06  1313.02
                             1348.61  1382.84  1432.21  1463.71  1482.23
                             1492.67  1565.22  1580.11  1597.31  1618.73
                             1643.04  1658.24  1716.43  1717.91  1741.15
                             1757.87  1873.50  1891.22  1913.13  1947.56
                             1978.78  2008.90  2023.28  2035.00  2062.13
                             2070.13  2104.25  2155.64  2157.69  2167.60
                             2180.83  2181.54  2202.15  2224.56  2344.03
                             2378.70  4320.90  4328.80  4366.51  4390.96
                             4392.63  4429.39  4445.63  4489.95  4501.02
                             4507.19  4540.20  4594.11  4636.92  4637.80
                             4657.54

 Zero-point correction=                           0.241907 (Hartree/Particle)
 Thermal correction to Energy=                    0.256678
 Thermal correction to Enthalpy=                  0.257622
 Thermal correction to Gibbs Free Energy=         0.197343
 Sum of electronic and zero-point Energies=          -3150.181333
 Sum of electronic and thermal Energies=             -3150.166563
 Sum of electronic and thermal Enthalpies=           -3150.165619
 Sum of electronic and thermal Free Energies=        -3150.225898

                     E (Thermal)             CV                S
                      KCal/Mol        Cal/Mol-Kelvin    Cal/Mol-Kelvin
 Total                  161.068             53.608            126.868
 Electronic               0.000              0.000              0.000
 Translational            0.889              2.981             42.543
 Rotational               0.889              2.981             33.233
 Vibrational            159.290             47.646             51.092
 Vibration     1          0.593              1.985              6.269
 Vibration     2          0.594              1.983              5.597
 Vibration     3          0.595              1.980              5.106
 Vibration     4          0.598              1.968              4.144
 Vibration     5          0.605              1.945              3.348
 Vibration     6          0.610              1.930              3.056
 Vibration     7          0.628              1.872              2.373
 Vibration     8          0.631              1.862              2.289
 Vibration     9          0.640              1.832              2.085
 Vibration    10          0.652              1.796              1.883
 Vibration    11          0.665              1.756              1.704
 Vibration    12          0.669              1.742              1.647
 Vibration    13          0.695              1.665              1.392
 Vibration    14          0.707              1.632              1.301
 Vibration    15          0.725              1.581              1.179
 Vibration    16          0.729              1.569              1.153
 Vibration    17          0.808              1.363              0.799
 Vibration    18          0.814              1.347              0.778
 Vibration    19          0.843              1.279              0.691
 Vibration    20          0.886              1.182              0.585

 Optimization completed.
    -- Stationary point found.
 Normal termination of Gaussian 16 at Tue Sep 17 10:03:20 2024.

 ----------------------------------------------------------------------
 #p M062X/def2tzvp geom=check guess=read scf(xqc,tight) integral(grid=u
 ltrafine) scrf(SMD, solvent=1,4-Dioxane) polar prop=efg volume
 ----------------------------------------------------------------------

 ---
 spe
 ---
 Structure from the checkpoint file:  "smiles_00034_conf_1.chk"
 Charge =  0 Multiplicity = 1

 SCF Done:  E(RM062X) =  -3152.81171497     A.U. after   11 cycles

 The electronic state is 1-A.
 Alpha  occ. eigenvalues -- -485.37391 -63.35871 -57.17814 -57.17580 -57.17574
 Alpha  occ. eigenvalues --  -19.63636 -19.63114 -10.64486 -10.60348 -10.58485
 Alpha  occ. eigenvalues --  -10.57581 -10.55875 -10.55513 -10.55420 -10.55246
 Alpha  occ. eigenvalues --  -10.54679 -10.52122 -10.52117  -9.02513  -6.84915
 Alpha  occ. eigenvalues --   -6.84048  -6.84028  -2.88291  -2.87977  -2.87953
 Alpha  occ. eigenvalues --   -2.87146  -2.87146  -1.19547  -1.13184  -0.98091
 Alpha  occ. eigenvalues --   -0.90381  -0.87780  -0.84820  -0.84503  -0.81544
 Alpha  occ. eigenvalues --   -0.76411  -0.71545  -0.69739  -0.68707  -0.65005
 Alpha  occ. eigenvalues --   -0.60317  -0.59033  -0.57120  -0.55932  -0.53667
 Alpha  occ. eigenvalues --   -0.53001  -0.51467  -0.49838  -0.49060  -0.47842
 Alpha  occ. eigenvalues --   -0.46841  -0.46125  -0.44853  -0.43937  -0.43259
 Alpha  occ. eigenvalues --   -0.42766  -0.41776  -0.40745  -0.40049  -0.37714
 Alpha  occ. eigenvalues --   -0.37307  -0.35356  -0.34887  -0.34058  -0.31483
 Alpha  occ. eigenvalues --   -0.29809
 Alpha virt. eigenvalues --    0.00492   0.01084   0.03753   0.07504   0.08607
 Alpha virt. eigenvalues --    0.09662   0.10075   0.11103   0.11945   0.12235
 Alpha virt. eigenvalues --    0.13015   0.13564   0.14444   0.14711   0.15603

 Mulliken charges:
               1
     1  C   -0.453925
     2  C   -0.104668
     3  O   -0.329769
     4  C    0.179846
     5  O   -0.326581
     6  C   -0.144695
     7  C   -0.416644
     8  C    0.050583
     9  C   -0.204390
    10  C   -0.138540
    11  C   -0.181058
    12  C    0.084426
    13  Br  -0.116770
    14  C   -0.259866
    15  H    0.162349
    16  H    0.151000
    17  H    0.151970
    18  H    0.134001
    19  H    0.143166
    20  H    0.146359
    21  H    0.154990
    22  H    0.155880
    23  H    0.145649
    24  H    0.147869
    25  H    0.145474
    26  H    0.175220
    27  H    0.165970
    28  H    0.178489
    29  H    0.203664
 Sum of Mulliken charges =  -0.00000

 Dipole moment (field-independent basis, Debye):
    X=              2.4906    Y=             -1.2653    Z=              0.4415  Tot=              2.8283
 Quadrupole moment (field-independent basis, Debye-Ang):
   XX=            -92.9311   YY=            -92.9631   ZZ=            -96.7281
   XY=              0.7222   XZ=             -3.2922   YZ=              0.0526

  Exact polarizability:     222.902     -10.024     180.573      -4.200     -14.716     131.899
 Approx polarizability:     216.492     -13.638     195.922      -3.644     -22.028     159.101

 Normal termination of Gaussian 16 at Tue Sep 17 11:24:44 2024.
 Gaussian 16:  ES64L-G16RevC.02  7-Dec-2021

 ----------------------------------------------------------------------
 #p M062X/def2tzvp geom=check guess=read scf(xqc,tight) integral(grid=u
 ltrafine) scrf(SMD, solvent=1,4-Dioxane) nmr=giao
 ----------------------------------------------------------------------

 ---
 spe
 ---
 Structure from the checkpoint file:  "smiles_00034_conf_1.chk"
 Charge =  0 Multiplicity = 1

                         Standard orientation:
 ---------------------------------------------------------------------
 Center     Atomic      Atomic             Coordinates (Angstroms)
 Number     Number       Type             X           Y           Z
 ---------------------------------------------------------------------
      1          6           0        4.855124    0.077114   -0.408682
      2          6           0        3.974836   -1.137152   -0.679092
      3          8           0        2.717619   -1.099233    0.001127
      4          6           0        1.722010   -0.323991   -0.610992
      5          8           0        1.896479    1.067513   -0.424487
      6          6           0        1.892921    1.500732    0.942610
      7          6           0        2.188879    2.988055    0.948805
      8          6           0        0.363657   -0.805395   -0.120909
      9          6           0        0.204435   -2.028787    0.531326
     10          6           0       -1.065697   -2.447485    0.930255
     11          6           0       -2.186270   -1.656580    0.682295
     12          6           0       -2.010168   -0.438738    0.028103
     13         35           0       -3.535651    0.664293   -0.315845
     14          6           0       -0.754085   -0.003698   -0.376525
     15          1           0        4.391607    0.987379   -0.792942
     16          1           0        5.018864    0.196809    0.666425
     17          1           0        5.830164   -0.054474   -0.890081
     18          1           0        3.800164   -1.252511   -1.759282
     19          1           0        4.462649   -2.049561   -0.322624
     20          1           0        1.780787   -0.441491   -1.703633
     21          1           0        0.916339    1.293912    1.398562
     22          1           0        2.648823    0.942499    1.506034
     23          1           0        3.169930    3.190231    0.509306
     24          1           0        1.436719    3.532533    0.370797
     25          1           0        2.182552    3.371516    1.973710
     26          1           0        1.077937   -2.638100    0.725480
     27          1           0       -1.186942   -3.397787    1.441041
     28          1           0       -3.176104   -1.973377    0.988618
     29          1           0       -0.632341    0.951487   -0.873109
 ---------------------------------------------------------------------

 SCF Done:  E(RM062X) =  -3152.81171497     A.U. after    1 cycles
