 Gaussian 16, Revision C.02,

 ----------------------------------------------------------------------
 #p B3LYP/6-31G(d,p) EmpiricalDispersion=GD3BJ opt freq scf(xqc,tight)
 integral(grid=ultrafine)
 ----------------------------------------------------------------------

 ----------------------------------
 opt-freq conformers_unique/conf_ag
 ----------------------------------
 Symbolic Z-matrix:
 Charge =  0 Multiplicity = 1

 SCF Done:  E(RB3LYP) =  -3109.92040694     A.U. after   14 cycles
 SCF Done:  E(RB3LYP) =  -3109.92205431     A.U. after   11 cycles
 SCF Done:  E(RB3LYP) =  -3109.92156014     A.U. after   12 cycles
 SCF Done:  E(RB3LYP) =  -3109.92224335     A.U. after   11 cycles
 SCF Done:  E(RB3LYP) =  -3109.92226210     A.U. after   10 cycles
 SCF Done:  E(RB3LYP) =  -3109.92228284     A.U. after   11 cycles
 SCF Done:  E(RB3LYP) =  -3109.92228520     A.U. after   11 cycles
 SCF Done:  E(RB3LYP) =  -3109.92229503     A.U. after    9 cycles
 SCF Done:  E(RB3LYP) =  -3109.92232350     A.U. after   11 cycles
 SCF Done:  E(RB3LYP) =  -3109.92234380     A.U. after   12 cycles
 SCF Done:  E(RB3LYP) =  -3109.92244920     A.U. after   12 cycles
 SCF Done:  E(RB3LYP) =  -3109.92246392     A.U. after   12 cycles
 SCF Done:  E(RB3LYP) =  -3109.92246909     A.U. after   10 cycles
 SCF Done:  E(RB3LYP) =  -3109.92246922     A.U. after   10 cycles
 SCF Done:  E(RB3LYP) =  -3109.92247019     A.U. after   11 cycles
 SCF Done:  E(RB3LYP) =  -3109.92247024     A.U. after    7 cycles
 SCF Done:  E(RB3LYP) =  -3109.92247026     A.U. after    7 cycles
 Optimization completed.
    -- Stationary point found.
 Normal termination of Gaussian 16 at Tue Sep 17 10:00:37 2024.

 ----------------------------------------------------------------------
 #P Geom=AllCheck Guess=TCheck SCRF=Check GenChk RB3LYP/6-31G(d,p) Freq
 ----------------------------------------------------------------------

 Structure from the checkpoint file:  "smiles_00069_conf_6.chk"
 ----------------------------------
 opt-freq conformers_unique/conf_ag
 ----------------------------------
 Charge =  0 Multiplicity = 1

 SCF Done:  E(RB3LYP) =  -3109.92247026     A.U. after    1 cycles

                      1                      2                      3
                      A                      A                      A
 Frequencies --     14.7501                30.8419                45.8072
 Red. masses --      5.0243                 4.0663                 3.9100
 Frc consts  --      0.0006                 0.0023                 0.0048
 IR Inten    --      1.0816                 0.3950                 0.1110

                      4                      5                      6
                      A                      A                      A
 Frequencies --     85.0914               111.4496               135.6909
 Red. masses --      4.7796                 4.0498                 7.5380
 Frc consts  --      0.0204                 0.0296                 0.0818
 IR Inten    --      1.8972                 0.4091                 1.3086

                      7                      8                      9
                      A                      A                      A
 Frequencies --    196.2307               227.6472               276.2290
 Red. masses --      3.4461                 1.4336                 5.9489
 Frc consts  --      0.0782                 0.0438                 0.2674
 IR Inten    --      0.8318                 2.5220                 1.9020

                     10                     11                     12
                      A                      A                      A
 Frequencies --    308.2718               318.2512               352.1817
 Red. masses --      4.1863                 3.0918                 3.6202
 Frc consts  --      0.2344                 0.1845                 0.2646
 IR Inten    --      5.8678                 3.5416                 5.9476

                     13                     14                     15
                      A                      A                      A
 Frequencies --    394.1158               422.4775               466.2411
 Red. masses --      2.8985                 2.9907                 2.8224
 Frc consts  --      0.2653                 0.3145                 0.3615
 IR Inten    --     10.2628                 0.0270                 1.8711

                     16                     17                     18
                      A                      A                      A
 Frequencies --    507.6489               579.8463               644.6029
 Red. masses --      3.1226                 5.7295                 6.0713
 Frc consts  --      0.4741                 1.1350                 1.4863
 IR Inten    --     11.0220                 7.7612                 1.9557

                     19                     20                     21
                      A                      A                      A
 Frequencies --    662.0036               719.8165               770.2862
 Red. masses --      4.3173                 4.1238                 3.2913
 Frc consts  --      1.1148                 1.2589                 1.1506
 IR Inten    --      6.0632                 2.7684                17.3819

                     22                     23                     24
                      A                      A                      A
 Frequencies --    799.7176               826.3385               851.0000
 Red. masses --      1.4852                 1.9033                 1.2938
 Frc consts  --      0.5596                 0.7657                 0.5520
 IR Inten    --     17.0747                19.4061                 1.1526

                     25                     26                     27
                      A                      A                      A
 Frequencies --    854.6061               878.4046               939.3795
 Red. masses --      2.2274                 2.7870                 2.7160
 Frc consts  --      0.9585                 1.2670                 1.4121
 IR Inten    --      4.9701                10.3824                 3.4254

                     28                     29                     30
                      A                      A                      A
 Frequencies --    964.8829               974.7635               987.8067
 Red. masses --      1.8072                 1.5031                 1.3681
 Frc consts  --      0.9913                 0.8415                 0.7865
 IR Inten    --      2.3917                 2.1710                 0.0120

                     31                     32                     33
                      A                      A                      A
 Frequencies --   1030.8680              1056.9940              1096.2398
 Red. masses --      4.9009                 3.8687                 2.5956
 Frc consts  --      3.0686                 2.5466                 1.8378
 IR Inten    --     46.2062                52.7928                28.8676

                     34                     35                     36
                      A                      A                      A
 Frequencies --   1125.6772              1134.1585              1162.9351
 Red. masses --      1.9379                 1.4319                 1.3853
 Frc consts  --      1.4468                 1.0852                 1.1039
 IR Inten    --     16.1047                25.7777               133.1635

                     37                     38                     39
                      A                      A                      A
 Frequencies --   1203.1389              1211.5139              1221.1950
 Red. masses --      1.7275                 1.1310                 2.6910
 Frc consts  --      1.4733                 0.9781                 2.3645
 IR Inten    --      7.2586                 1.3775                 7.4031

                     40                     41                     42
                      A                      A                      A
 Frequencies --   1286.2805              1321.7783              1334.7639
 Red. masses --      1.9598                 2.0224                 1.7758
 Frc consts  --      1.9104                 2.0818                 1.8641
 IR Inten    --    212.7217                95.2467                 2.0091

                     43                     44                     45
                      A                      A                      A
 Frequencies --   1337.1107              1364.1287              1409.1069
 Red. masses --      1.1838                 2.3352                 1.3136
 Frc consts  --      1.2470                 2.5603                 1.5368
 IR Inten    --     37.6610                59.0587                20.8326

                     46                     47                     48
                      A                      A                      A
 Frequencies --   1433.3512              1450.2624              1487.8275
 Red. masses --      1.3731                 2.5786                 1.1046
 Frc consts  --      1.6621                 3.1954                 1.4406
 IR Inten    --      6.7523                15.3140                 7.1837

                     49                     50                     51
                      A                      A                      A
 Frequencies --   1500.1536              1503.6726              1523.2311
 Red. masses --      1.0509                 1.0842                 1.0574
 Frc consts  --      1.3934                 1.4443                 1.4455
 IR Inten    --      9.3128                 6.4600                 6.2712

                     52                     53                     54
                      A                      A                      A
 Frequencies --   1532.9052              1629.8956              1651.2110
 Red. masses --      2.3207                 6.8939                 5.7140
 Frc consts  --      3.2130                10.7903                 9.1790
 IR Inten    --     61.1485                 0.5091                 5.0867

                     55                     56                     57
                      A                      A                      A
 Frequencies --   1814.0288              3056.9729              3076.2086
 Red. masses --     10.8417                 1.0360                 1.0609
 Frc consts  --     21.0201                 5.7042                 5.9150
 IR Inten    --    174.7510                17.8046                10.5903

                     58                     59                     60
                      A                      A                      A
 Frequencies --   3086.7954              3126.9920              3137.3458
 Red. masses --      1.0586                 1.1024                 1.1051
 Frc consts  --      5.9431                 6.3508                 6.4086
 IR Inten    --     22.6400                19.6090                 6.8971

                     61                     62                     63
                      A                      A                      A
 Frequencies --   3139.8287              3156.9405              3188.9050
 Red. masses --      1.1042                 1.1069                 1.0895
 Frc consts  --      6.4137                 6.4995                 6.5277
 IR Inten    --      5.8068                25.3073                 9.7618

                     64                     65                     66
                      A                      A                      A
 Frequencies --   3203.4883              3221.7040              3223.3929
 Red. masses --      1.0891                 1.0937                 1.0948
 Frc consts  --      6.5852                 6.6882                 6.7024
 IR Inten    --      0.8842                 4.1576                 0.4350

 - Thermochemistry -
 -------------------
 Temperature   298.150 Kelvin.  Pressure   1.00000 Atm.
 Atom     1 has atomic number  6 and mass  12.00000

 Molecular mass:   241.99424 amu.
 Principal axes and moments of inertia in atomic units:
                           1         2         3
     Eigenvalues --   984.710829663.494699688.35937
           X            0.99988   0.00784  -0.01367
           Y           -0.00692   0.99781   0.06574
           Z            0.01416  -0.06564   0.99774
 This molecule is an asymmetric top.
 Rotational symmetry number  1.
 Warning -- assumption of classical behavior for rotation
           may cause significant error
 Rotational temperatures (Kelvin)      0.08796     0.00896     0.00894
 Rotational constants (GHZ):           1.83276     0.18676     0.18628
 Zero-point vibrational energy     501159.8 (Joules/Mol)
                                  119.78008 (Kcal/Mol)
 Warning -- explicit consideration of  17 degrees of freedom as
           vibrations may cause significant error
 Vibrational temperatures:     21.22    44.37    65.91   122.43   160.35
          (Kelvin)            195.23   282.33   327.53   397.43   443.53
                              457.89   506.71   567.04   607.85   670.82
                              730.39   834.27   927.44   952.48  1035.66
                             1108.27  1150.62  1188.92  1224.40  1229.59
                             1263.83  1351.56  1388.25  1402.47  1421.23
                             1483.19  1520.78  1577.24  1619.60  1631.80
                             1673.20  1731.05  1743.10  1757.03  1850.67
                             1901.74  1920.43  1923.80  1962.68  2027.39
                             2062.27  2086.60  2140.65  2158.39  2163.45
                             2191.59  2205.51  2345.06  2375.72  2609.98
                             4398.30  4425.98  4441.21  4499.04  4513.94
                             4517.51  4542.13  4588.12  4609.11  4635.31
                             4637.74

 Zero-point correction=                           0.190882 (Hartree/Particle)
 Thermal correction to Energy=                    0.203698
 Thermal correction to Enthalpy=                  0.204643
 Thermal correction to Gibbs Free Energy=         0.147801
 Sum of electronic and zero-point Energies=          -3109.731589
 Sum of electronic and thermal Energies=             -3109.718772
 Sum of electronic and thermal Enthalpies=           -3109.717828
 Sum of electronic and thermal Free Energies=        -3109.774669

                     E (Thermal)             CV                S
                      KCal/Mol        Cal/Mol-Kelvin    Cal/Mol-Kelvin
 Total                  127.823             46.136            119.633
 Electronic               0.000              0.000              0.000
 Translational            0.889              2.981             42.352
 Rotational               0.889              2.981             32.889
 Vibrational            126.045             40.174             44.393
 Vibration     1          0.593              1.986              7.239
 Vibration     2          0.594              1.984              5.775
 Vibration     3          0.595              1.979              4.991
 Vibration     4          0.601              1.960              3.770
 Vibration     5          0.607              1.940              3.244
 Vibration     6          0.614              1.918              2.864
 Vibration     7          0.636              1.845              2.168
 Vibration     8          0.651              1.799              1.897
 Vibration     9          0.678              1.717              1.557
 Vibration    10          0.698              1.658              1.372
 Vibration    11          0.705              1.639              1.319
 Vibration    12          0.729              1.571              1.156
 Vibration    13          0.761              1.483              0.985
 Vibration    14          0.785              1.421              0.884
 Vibration    15          0.824              1.325              0.748
 Vibration    16          0.863              1.233              0.639
 Vibration    17          0.936              1.075              0.486

 Optimization completed.
    -- Stationary point found.
 Normal termination of Gaussian 16 at Tue Sep 17 10:02:23 2024.

 ----------------------------------------------------------------------
 #p M062X/def2tzvp geom=check guess=read scf(xqc,tight) integral(grid=u
 ltrafine) scrf(SMD, solvent=1,4-Dioxane) polar prop=efg volume
 ----------------------------------------------------------------------

 ---
 spe
 ---
 Structure from the checkpoint file:  "smiles_00069_conf_6.chk"
 Charge =  0 Multiplicity = 1

 SCF Done:  E(RM062X) =  -3112.33674052     A.U. after   11 cycles

  Exact polarizability:     215.430      -8.039     145.971      13.923      12.141     122.895
 Approx polarizability:     201.717      -8.669     177.833      17.585      19.014     143.879

 Normal termination of Gaussian 16 at Tue Sep 17 10:49:48 2024.
 Gaussian 16:  ES64L-G16RevC.02  7-Dec-2021

 ----------------------------------------------------------------------
 #p M062X/def2tzvp geom=check guess=read scf(xqc,tight) integral(grid=u
 ltrafine) scrf(SMD, solvent=1,4-Dioxane) nmr=giao
 ----------------------------------------------------------------------

 ---
 spe
 ---
 Structure from the checkpoint file:  "smiles_00069_conf_6.chk"
 Charge =  0 Multiplicity = 1

                         Standard orientation:
 ---------------------------------------------------------------------
 Center     Atomic      Atomic             Coordinates (Angstroms)
 Number     Number       Type             X           Y           Z
 ---------------------------------------------------------------------
      1          6           0        5.683448    0.372116   -0.815274
      2          6           0        4.268523    0.383896   -1.368208
      3          8           0        3.400246   -0.489897   -0.603727
      4          6           0        2.877308    0.030680    0.523314
      5          8           0        3.095640    1.154390    0.925897
      6          6           0        1.932309   -0.949432    1.194992
      7          6           0        0.497416   -0.650553    0.801878
      8          6           0       -0.074094    0.590598    1.109082
      9          6           0       -1.388139    0.879210    0.750511
     10          6           0       -2.134534   -0.085512    0.076451
     11         35           0       -3.940360    0.301000   -0.416151
     12          6           0       -1.588861   -1.324157   -0.245450
     13          6           0       -0.270258   -1.596937    0.118941
     14          1           0        6.336752    0.976104   -1.452970
     15          1           0        6.079185   -0.646995   -0.784214
     16          1           0        5.702141    0.792603    0.192470
     17          1           0        4.227590   -0.017413   -2.382812
     18          1           0        3.847419    1.391657   -1.356439
     19          1           0        2.198160   -1.970384    0.915863
     20          1           0        2.061519   -0.832192    2.274970
     21          1           0        0.523341    1.338851    1.619854
     22          1           0       -1.829198    1.839749    0.989308
     23          1           0       -2.182385   -2.061588   -0.772736
     24          1           0        0.162271   -2.560799   -0.132781
 ---------------------------------------------------------------------

 SCF Done:  E(RM062X) =  -3112.33674052     A.U. after    1 cycles

      1  C    Isotropic =   171.0607   Anisotropy =    25.2089

      2  C    Isotropic =   119.4743   Anisotropy =    73.0701

      3  O    Isotropic =    88.8268   Anisotropy =   169.4694

      4  C    Isotropic =    -9.2529   Anisotropy =   121.6892

      5  O    Isotropic =  -143.6034   Anisotropy =   668.3227

      6  C    Isotropic =   139.2527   Anisotropy =    22.9533

      7  C    Isotropic =    26.7015   Anisotropy =   221.6254

      8  C    Isotropic =    32.4315   Anisotropy =   209.5255

      9  C    Isotropic =    31.1319   Anisotropy =   185.9342

     10  C    Isotropic =    25.7884   Anisotropy =   140.9184

     11  Br   Isotropic =  2090.5405   Anisotropy =  1282.1193

     12  C    Isotropic =    31.1774   Anisotropy =   183.1960

     13  C    Isotropic =    32.5840   Anisotropy =   188.4667

     14  H    Isotropic =    30.9592   Anisotropy =    10.6825

     15  H    Isotropic =    30.7933   Anisotropy =     8.3442

     16  H    Isotropic =    30.2822   Anisotropy =     6.1749

     17  H    Isotropic =    28.2312   Anisotropy =     6.6950

     18  H    Isotropic =    27.3418   Anisotropy =     4.5722

     19  H    Isotropic =    28.3619   Anisotropy =     3.8182

     20  H    Isotropic =    28.1644   Anisotropy =     5.1569

     21  H    Isotropic =    23.2475   Anisotropy =     9.5865

     22  H    Isotropic =    23.6756   Anisotropy =    10.5137

     23  H    Isotropic =    23.6939   Anisotropy =    10.2969

     24  H    Isotropic =    23.8490   Anisotropy =     7.9344

 The electronic state is 1-A.
 Alpha  occ. eigenvalues -- -485.37475 -63.35956 -57.17899 -57.17665 -57.17659
 Alpha  occ. eigenvalues --  -19.67366 -19.61960 -10.67790 -10.60347 -10.59289
 Alpha  occ. eigenvalues --  -10.56660 -10.55791 -10.55740 -10.55688 -10.55476
 Alpha  occ. eigenvalues --  -10.55205 -10.52835  -9.02600  -6.85004  -6.84135
 Alpha  occ. eigenvalues --   -6.84116  -2.88380  -2.88065  -2.88042  -2.87232
 Alpha  occ. eigenvalues --   -2.87232  -1.23260  -1.14171  -0.98453  -0.91821
 Alpha  occ. eigenvalues --   -0.87873  -0.85649  -0.84970  -0.79170  -0.73607
 Alpha  occ. eigenvalues --   -0.70738  -0.67209  -0.64157  -0.59690  -0.58157
 Alpha  occ. eigenvalues --   -0.57418  -0.54578  -0.54032  -0.53057  -0.50852
 Alpha  occ. eigenvalues --   -0.50018  -0.49204  -0.47092  -0.46531  -0.45794
 Alpha  occ. eigenvalues --   -0.44435  -0.43469  -0.41772  -0.41147  -0.40430
 Alpha  occ. eigenvalues --   -0.37807  -0.37539  -0.35613  -0.35121  -0.32117
 Alpha  occ. eigenvalues --   -0.29439
 Alpha virt. eigenvalues --    0.00341   0.00748   0.03620   0.04949   0.07856
 Alpha virt. eigenvalues --    0.09483   0.10452   0.10879   0.11451   0.12574
 Alpha virt. eigenvalues --    0.13172   0.14016   0.14855   0.15035   0.16149

 Mulliken charges:
               1
     1  C   -0.443614
     2  C   -0.105373
     3  O   -0.272718
     4  C    0.395667
     5  O   -0.372846
     6  C   -0.371465
     7  C    0.084487
     8  C   -0.187863
     9  C   -0.155378
    10  C    0.032160
    11  Br  -0.117551
    12  C   -0.155710
    13  C   -0.188641
    14  H    0.151661
    15  H    0.149531
    16  H    0.165414
    17  H    0.150809
    18  H    0.156896
    19  H    0.173044
    20  H    0.191719
    21  H    0.189339
    22  H    0.181742
    23  H    0.180000
    24  H    0.168691
 Sum of Mulliken charges =  -0.00000

 Dipole moment (field-independent basis, Debye):
    X=              2.5009    Y=             -1.8603    Z=             -0.7121  Tot=              3.1972
 Quadrupole moment (field-independent basis, Debye-Ang):
   XX=            -87.8264   YY=            -86.3635   ZZ=            -88.1268
   XY=             -3.4452   XZ=             -5.5653   YZ=             -1.2568

 Normal termination of Gaussian 16 at Tue Sep 17 11:08:50 2024.
