 Gaussian 16, Revision C.02,

 ----------------------------------------------------------------------
 #p B3LYP/6-31G(d,p) EmpiricalDispersion=GD3BJ opt freq scf(xqc,tight)
 integral(grid=ultrafine)
 ----------------------------------------------------------------------

 ----------------------------------
 opt-freq conformers_unique/conf_ag
 ----------------------------------
 Symbolic Z-matrix:
 Charge =  0 Multiplicity = 1

 SCF Done:  E(RB3LYP) =  -3630.84476025     A.U. after   15 cycles
 SCF Done:  E(RB3LYP) =  -3630.84715579     A.U. after   13 cycles
 SCF Done:  E(RB3LYP) =  -3630.84717817     A.U. after   12 cycles
 SCF Done:  E(RB3LYP) =  -3630.84729102     A.U. after   12 cycles
 SCF Done:  E(RB3LYP) =  -3630.84731335     A.U. after   11 cycles
 SCF Done:  E(RB3LYP) =  -3630.84733296     A.U. after   11 cycles
 SCF Done:  E(RB3LYP) =  -3630.84733468     A.U. after    9 cycles
 SCF Done:  E(RB3LYP) =  -3630.84733501     A.U. after    9 cycles
 SCF Done:  E(RB3LYP) =  -3630.84733514     A.U. after    9 cycles
 SCF Done:  E(RB3LYP) =  -3630.84733521     A.U. after    8 cycles
 SCF Done:  E(RB3LYP) =  -3630.84733522     A.U. after    8 cycles
 Optimization completed.
    -- Stationary point found.
 Normal termination of Gaussian 16 at Tue Sep 17 09:45:56 2024.

 ----------------------------------------------------------------------
 #P Geom=AllCheck Guess=TCheck SCRF=Check GenChk RB3LYP/6-31G(d,p) Freq
 ----------------------------------------------------------------------

 Structure from the checkpoint file:  "smiles_00068_conf_6.chk"
 ----------------------------------
 opt-freq conformers_unique/conf_ag
 ----------------------------------
 Charge =  0 Multiplicity = 1

 SCF Done:  E(RB3LYP) =  -3630.84733522     A.U. after    1 cycles

                      1                      2                      3
                      A                      A                      A
 Frequencies --     12.7088                40.5791                59.3150
 Red. masses --     18.3723                18.6836                14.1280
 Frc consts  --      0.0017                 0.0181                 0.0293
 IR Inten    --      0.0672                 0.1220                 0.7795

                      4                      5                      6
                      A                      A                      A
 Frequencies --    113.4176               128.8483               148.0685
 Red. masses --     14.4145                10.1774                20.0536
 Frc consts  --      0.1092                 0.0996                 0.2590
 IR Inten    --      3.8470                 4.0773                 0.2630

                      7                      8                      9
                      A                      A                      A
 Frequencies --    182.2928               212.9688               272.9572
 Red. masses --      5.1490                 5.0572                15.8733
 Frc consts  --      0.1008                 0.1351                 0.6968
 IR Inten    --      1.2183                 1.5637                 0.3956

                     10                     11                     12
                      A                      A                      A
 Frequencies --    299.2215               325.5977               367.7075
 Red. masses --      9.9464                14.5853                 8.8610
 Frc consts  --      0.5247                 0.9110                 0.7059
 IR Inten    --      3.1984                 1.2354                 0.6769

                     13                     14                     15
                      A                      A                      A
 Frequencies --    405.0700               439.3737               455.1663
 Red. masses --      6.5079                12.8629                16.7923
 Frc consts  --      0.6291                 1.4630                 2.0497
 IR Inten    --      3.1988                 2.4351                 4.0187

                     16                     17                     18
                      A                      A                      A
 Frequencies --    465.6126               529.4692               533.3989
 Red. masses --      8.4789                 9.5422                16.3024
 Frc consts  --      1.0830                 1.5761                 2.7328
 IR Inten    --      0.0075                 1.6686                 1.1363

                     19                     20                     21
                      A                      A                      A
 Frequencies --    574.7583               585.2812               618.9316
 Red. masses --      8.6130                 7.2801                 7.1952
 Frc consts  --      1.6764                 1.4693                 1.6240
 IR Inten    --      2.0721                 0.6924                 1.3792

                     22                     23                     24
                      A                      A                      A
 Frequencies --    694.5483               756.6413               785.2366
 Red. masses --      2.4208                17.5759                10.9199
 Frc consts  --      0.6880                 5.9286                 3.9671
 IR Inten    --     16.0080                22.4402                46.8588

                     25                     26                     27
                      A                      A                      A
 Frequencies --    886.1653               902.2193               923.5984
 Red. masses --      9.6636                 1.5540                 1.3984
 Frc consts  --      4.4712                 0.7453                 0.7028
 IR Inten    --     11.4028                17.5679                 4.8024

                     28                     29                     30
                      A                      A                      A
 Frequencies --    937.1253              1015.9272              1122.1588
 Red. masses --      1.3687                 6.1604                 7.7957
 Frc consts  --      0.7082                 3.7461                 5.7838
 IR Inten    --      0.7718                 1.6439               382.1323

                     31                     32                     33
                      A                      A                      A
 Frequencies --   1135.3097              1147.3406              1201.3547
 Red. masses --      1.7526                 1.7736                12.9352
 Frc consts  --      1.3309                 1.3756                10.9993
 IR Inten    --     31.6027                55.7416               206.0507

                     34                     35                     36
                      A                      A                      A
 Frequencies --   1231.3269              1234.9488              1291.1058
 Red. masses --      9.9206                 4.5873                 1.4860
 Frc consts  --      8.8620                 4.1219                 1.4594
 IR Inten    --    193.6547                52.2683                 2.2017

                     37                     38                     39
                      A                      A                      A
 Frequencies --   1342.3993              1444.8962              1458.8505
 Red. masses --      3.7350                 3.0602                 3.3463
 Frc consts  --      3.9656                 3.7642                 4.1960
 IR Inten    --      0.4392                23.5072                11.8603

                     40                     41                     42
                      A                      A                      A
 Frequencies --   1602.6519              1632.1761              2358.5277
 Red. masses --      5.9912                 6.0332                12.6795
 Frc consts  --      9.0665                 9.4696                41.5561
 IR Inten    --     60.9277                10.5290                13.8751

                     43                     44                     45
                      A                      A                      A
 Frequencies --   3234.3901              3236.6691              3241.4938
 Red. masses --      1.0927                 1.0932                 1.0931
 Frc consts  --      6.7349                 6.7474                 6.7669
 IR Inten    --      2.0578                 1.1169                 1.4641

 - Thermochemistry -
 -------------------
 Temperature   298.150 Kelvin.  Pressure   1.00000 Atm.
 Atom     1 has atomic number  7 and mass  14.00307

 Molecular mass:   280.91217 amu.
 Principal axes and moments of inertia in atomic units:
                           1         2         3
     Eigenvalues --  3082.824437043.649669327.12590
           X            0.99962   0.02755  -0.00249
           Y           -0.02756   0.99960  -0.00554
           Z            0.00233   0.00561   0.99998
 This molecule is an asymmetric top.
 Rotational symmetry number  1.
 Warning -- assumption of classical behavior for rotation
           may cause significant error
 Rotational temperatures (Kelvin)      0.02810     0.01230     0.00929
 Rotational constants (GHZ):           0.58542     0.25622     0.19349
 Zero-point vibrational energy     248750.3 (Joules/Mol)
                                   59.45275 (Kcal/Mol)
 Warning -- explicit consideration of  21 degrees of freedom as
           vibrations may cause significant error
 Vibrational temperatures:     18.29    58.38    85.34   163.18   185.38
          (Kelvin)            213.04   262.28   306.41   392.72   430.51
                              468.46   529.05   582.81   632.16   654.88
                              669.91   761.79   767.44   826.95   842.09
                              890.50   999.30  1088.64  1129.78  1274.99
                             1298.09  1328.85  1348.31  1461.69  1614.54
                             1633.46  1650.77  1728.48  1771.60  1776.82
                             1857.61  1931.41  2078.88  2098.96  2305.86
                             2348.34  3393.40  4653.57  4656.84  4663.79

 Zero-point correction=                           0.094744 (Hartree/Particle)
 Thermal correction to Energy=                    0.107601
 Thermal correction to Enthalpy=                  0.108546
 Thermal correction to Gibbs Free Energy=         0.051575
 Sum of electronic and zero-point Energies=          -3630.752591
 Sum of electronic and thermal Energies=             -3630.739734
 Sum of electronic and thermal Enthalpies=           -3630.738790
 Sum of electronic and thermal Free Energies=        -3630.795760

                     E (Thermal)             CV                S
                      KCal/Mol        Cal/Mol-Kelvin    Cal/Mol-Kelvin
 Total                   67.521             45.361            119.904
 Electronic               0.000              0.000              0.000
 Translational            0.889              2.981             42.797
 Rotational               0.889              2.981             33.670
 Vibrational             65.743             39.399             43.437
 Vibration     1          0.593              1.987              7.535
 Vibration     2          0.594              1.981              5.231
 Vibration     3          0.597              1.974              4.480
 Vibration     4          0.607              1.938              3.210
 Vibration     5          0.611              1.924              2.963
 Vibration     6          0.617              1.905              2.697
 Vibration     7          0.630              1.864              2.305
 Vibration     8          0.644              1.821              2.018
 Vibration     9          0.676              1.723              1.577
 Vibration    10          0.692              1.675              1.421
 Vibration    11          0.710              1.624              1.282
 Vibration    12          0.740              1.539              1.089
 Vibration    13          0.770              1.459              0.944
 Vibration    14          0.799              1.384              0.829
 Vibration    15          0.814              1.349              0.780
 Vibration    16          0.823              1.326              0.750
 Vibration    17          0.884              1.185              0.588
 Vibration    18          0.888              1.176              0.580
 Vibration    19          0.931              1.086              0.495
 Vibration    20          0.942              1.063              0.476
 Vibration    21          0.979              0.992              0.418

 Optimization completed.
    -- Stationary point found.
 Normal termination of Gaussian 16 at Tue Sep 17 09:47:28 2024.

 ----------------------------------------------------------------------
 #p M062X/def2tzvp geom=check guess=read scf(xqc,tight) integral(grid=u
 ltrafine) scrf(SMD, solvent=1,4-Dioxane) polar prop=efg volume
 ----------------------------------------------------------------------

 ---
 spe
 ---
 Structure from the checkpoint file:  "smiles_00068_conf_6.chk"
 Charge =  0 Multiplicity = 1

 SCF Done:  E(RM062X) =  -3633.33952894     A.U. after   13 cycles

  Exact polarizability:     189.057      -2.026     189.327     -14.152      -9.092      98.017
 Approx polarizability:     196.207      -4.142     212.694     -15.531     -10.643     122.492

 Normal termination of Gaussian 16 at Tue Sep 17 10:37:47 2024.
 Gaussian 16:  ES64L-G16RevC.02  7-Dec-2021

 ----------------------------------------------------------------------
 #p M062X/def2tzvp geom=check guess=read scf(xqc,tight) integral(grid=u
 ltrafine) scrf(SMD, solvent=1,4-Dioxane) nmr=giao
 ----------------------------------------------------------------------

 ---
 spe
 ---
 Structure from the checkpoint file:  "smiles_00068_conf_6.chk"
 Charge =  0 Multiplicity = 1

                         Standard orientation:
 ---------------------------------------------------------------------
 Center     Atomic      Atomic             Coordinates (Angstroms)
 Number     Number       Type             X           Y           Z
 ---------------------------------------------------------------------
      1          7           0        0.818311    4.555998   -0.251215
      2          6           0        0.741548    3.407054   -0.092191
      3          6           0        0.646240    1.990420    0.104557
      4          6           0        1.779774    1.186686   -0.093381
      5          6           0        1.672577   -0.185158    0.103402
      6         35           0        3.201094   -1.286904   -0.161535
      7          6           0        0.466390   -0.771976    0.483543
      8          6           0       -0.653324    0.041399    0.682956
      9         16           0       -2.190853   -0.710258    1.217277
     10          6           0       -3.094099   -0.616746   -0.369327
     11          9           0       -2.463525   -1.270777   -1.355537
     12          9           0       -4.296737   -1.175890   -0.180654
     13          9           0       -3.274179    0.649797   -0.783775
     14          6           0       -0.572260    1.423012    0.501824
     15          1           0        2.720543    1.630990   -0.392643
     16          1           0        0.395374   -1.843780    0.619261
     17          1           0       -1.439824    2.050271    0.660586
 ---------------------------------------------------------------------

 SCF Done:  E(RM062X) =  -3633.33952894     A.U. after    1 cycles

      1  N    Isotropic =   -86.7505   Anisotropy =   466.1637

      2  C    Isotropic =    51.4352   Anisotropy =   378.3969

      3  C    Isotropic =    48.2743   Anisotropy =   170.6125

      4  C    Isotropic =    22.1413   Anisotropy =   199.0372

      5  C    Isotropic =    22.3430   Anisotropy =   157.7458

      6  Br   Isotropic =  2019.9683   Anisotropy =  1342.7626

      7  C    Isotropic =    16.2715   Anisotropy =   180.4595

      8  C    Isotropic =    31.7483   Anisotropy =   180.2373

      9  S    Isotropic =   281.8466   Anisotropy =   362.4836

     10  C    Isotropic =    40.2355   Anisotropy =    19.2103

     11  F    Isotropic =   215.7467   Anisotropy =   157.5064

     12  F    Isotropic =   226.5180   Anisotropy =   149.5262

     13  F    Isotropic =   215.4740   Anisotropy =   158.1433

     14  C    Isotropic =    19.5393   Anisotropy =   209.0138

     15  H    Isotropic =    23.1753   Anisotropy =    11.4897

     16  H    Isotropic =    23.0673   Anisotropy =    13.4555

     17  H    Isotropic =    23.0212   Anisotropy =    10.9161

 The electronic state is 1-A.
 Alpha  occ. eigenvalues -- -485.39655 -89.94917 -63.38127 -57.20080 -57.19832
 Alpha  occ. eigenvalues --  -57.19824 -25.30441 -25.30095 -25.30088 -14.77536
 Alpha  occ. eigenvalues --  -10.83552 -10.63579 -10.62014 -10.61886 -10.60116
 Alpha  occ. eigenvalues --  -10.59823 -10.59635 -10.59594  -9.04771  -8.30774
 Alpha  occ. eigenvalues --   -6.87206  -6.86288  -6.86261  -6.22744  -6.22539
 Alpha  occ. eigenvalues --   -6.22172  -2.90582  -2.90251  -2.90222  -2.89367
 Alpha  occ. eigenvalues --   -2.89367  -1.48564  -1.39785  -1.39332  -1.03995
 Alpha  occ. eigenvalues --   -1.01781  -0.94621  -0.92899  -0.87844  -0.85028
 Alpha  occ. eigenvalues --   -0.80206  -0.76661  -0.72246  -0.71251  -0.71146
 Alpha  occ. eigenvalues --   -0.66413  -0.62968  -0.60135  -0.59597  -0.59543
 Alpha  occ. eigenvalues --   -0.58657  -0.55953  -0.55506  -0.53608  -0.51639
 Alpha  occ. eigenvalues --   -0.51453  -0.51037  -0.47764  -0.46375  -0.45316
 Alpha  occ. eigenvalues --   -0.44900  -0.43978  -0.41719  -0.39746  -0.37235
 Alpha  occ. eigenvalues --   -0.35508  -0.33920  -0.32686
 Alpha virt. eigenvalues --   -0.05168  -0.03575   0.00844   0.03172   0.05721
 Alpha virt. eigenvalues --    0.07257   0.08008   0.08987   0.10061   0.11406
 Alpha virt. eigenvalues --    0.12684   0.13579   0.14257   0.15186   0.15395

 Mulliken charges:
               1
     1  N   -0.024677
     2  C   -0.217604
     3  C    0.232319
     4  C   -0.199506
     5  C    0.065501
     6  Br  -0.066404
     7  C   -0.135805
     8  C   -0.033210
     9  S   -0.007880
    10  C    0.449795
    11  F   -0.162908
    12  F   -0.160430
    13  F   -0.167089
    14  C   -0.189515
    15  H    0.208580
    16  H    0.200540
    17  H    0.208293
 Sum of Mulliken charges =   0.00000

 Dipole moment (field-independent basis, Debye):
    X=              0.7977    Y=             -3.1491    Z=              1.2658  Tot=              3.4865
 Quadrupole moment (field-independent basis, Debye-Ang):
   XX=            -99.1549   YY=           -119.3394   ZZ=            -98.4477
   XY=             -3.8013   XZ=             -2.1119   YZ=              1.0897

 Normal termination of Gaussian 16 at Tue Sep 17 10:56:00 2024.
