 Gaussian 16, Revision C.02,

 ----------------------------------------------------------------------
 #p B3LYP/6-31G(d,p) EmpiricalDispersion=GD3BJ opt freq scf(xqc,tight)
 integral(grid=ultrafine)
 ----------------------------------------------------------------------

 ----------------------------------
 opt-freq conformers_unique/conf_aa
 ----------------------------------
 Symbolic Z-matrix:
 Charge =  0 Multiplicity = 1

 SCF Done:  E(RB3LYP) =  -2960.67535383     A.U. after   14 cycles
 SCF Done:  E(RB3LYP) =  -2960.67662256     A.U. after   10 cycles
 SCF Done:  E(RB3LYP) =  -2960.67666118     A.U. after    9 cycles
 SCF Done:  E(RB3LYP) =  -2960.67666426     A.U. after    7 cycles
 SCF Done:  E(RB3LYP) =  -2960.67666465     A.U. after    7 cycles
 Optimization completed.
    -- Stationary point found.
 Normal termination of Gaussian 16 at Tue Sep 17 09:50:50 2024.

 ----------------------------------------------------------------------
 #P Geom=AllCheck Guess=TCheck SCRF=Check GenChk RB3LYP/6-31G(d,p) Freq
 ----------------------------------------------------------------------

 Structure from the checkpoint file:  "smiles_00004_conf_0.chk"
 ----------------------------------
 opt-freq conformers_unique/conf_aa
 ----------------------------------
 Charge =  0 Multiplicity = 1

 SCF Done:  E(RB3LYP) =  -2960.67666465     A.U. after    1 cycles

                      1                      2                      3
                      A                      A                      A
 Frequencies --     51.1348                69.8009               158.1385
 Red. masses --      3.2674                 4.4944                 4.7011
 Frc consts  --      0.0050                 0.0129                 0.0693
 IR Inten    --      0.0018                 0.0011                 0.0095

                      4                      5                      6
                      A                      A                      A
 Frequencies --    197.4690               229.0312               244.7199
 Red. masses --      2.5429                 5.9407                 1.2049
 Frc consts  --      0.0584                 0.1836                 0.0425
 IR Inten    --      0.0123                 0.7140                 0.0491

                      7                      8                      9
                      A                      A                      A
 Frequencies --    271.8941               292.2636               335.2479
 Red. masses --      1.2565                 2.2127                 1.0457
 Frc consts  --      0.0547                 0.1114                 0.0692
 IR Inten    --      0.0417                 0.3415                 0.0002

                     10                     11                     12
                      A                      A                      A
 Frequencies --    343.1728               355.3474               409.7320
 Red. masses --      2.6760                 2.6683                 3.3948
 Frc consts  --      0.1857                 0.1985                 0.3358
 IR Inten    --      0.1350                 0.0005                 3.6834

                     13                     14                     15
                      A                      A                      A
 Frequencies --    414.2998               424.1702               468.3498
 Red. masses --      3.0194                 2.9577                 2.9114
 Frc consts  --      0.3053                 0.3135                 0.3763
 IR Inten    --      0.3901                 0.0109                 0.2848

                     16                     17                     18
                      A                      A                      A
 Frequencies --    556.3923               573.9689               650.3932
 Red. masses --      2.6716                 3.2760                 7.1236
 Frc consts  --      0.4873                 0.6359                 1.7754
 IR Inten    --     13.5727                 3.8813                 0.2075

                     19                     20                     21
                      A                      A                      A
 Frequencies --    739.0151               746.4198               846.8198
 Red. masses --      5.5212                 3.4844                 1.2823
 Frc consts  --      1.7766                 1.1438                 0.5418
 IR Inten    --     14.8403                 1.7225                 4.5482

                     22                     23                     24
                      A                      A                      A
 Frequencies --    849.3373               852.0988               937.0945
 Red. masses --      1.5185                 2.5604                 1.7576
 Frc consts  --      0.6454                 1.0953                 0.9094
 IR Inten    --     24.9166                 0.0493                 1.1899

                     25                     26                     27
                      A                      A                      A
 Frequencies --    948.8860               966.8136               975.5647
 Red. masses --      1.6824                 1.2070                 1.3345
 Frc consts  --      0.8925                 0.6647                 0.7483
 IR Inten    --      0.8113                 0.0915                 0.0332

                     28                     29                     30
                      A                      A                      A
 Frequencies --    980.0181              1026.8733              1049.8412
 Red. masses --      1.3234                 4.6777                 1.4231
 Frc consts  --      0.7489                 2.9062                 0.9241
 IR Inten    --      0.0025                42.4845                 3.2349

                     31                     32                     33
                      A                      A                      A
 Frequencies --   1056.8668              1101.9484              1139.8589
 Red. masses --      1.3971                 3.0729                 2.1360
 Frc consts  --      0.9194                 2.1985                 1.6351
 IR Inten    --      0.0000                17.1168                22.1570

                     34                     35                     36
                      A                      A                      A
 Frequencies --   1145.9921              1221.2991              1237.0271
 Red. masses --      1.4253                 1.1393                 2.7342
 Frc consts  --      1.1029                 1.0012                 2.4651
 IR Inten    --      4.8636                 0.0126                 3.3589

                     37                     38                     39
                      A                      A                      A
 Frequencies --   1239.8977              1300.8946              1338.7751
 Red. masses --      2.5275                 3.0544                 1.2941
 Frc consts  --      2.2893                 3.0455                 1.3666
 IR Inten    --      0.4885                18.9394                 0.0616

                     40                     41                     42
                      A                      A                      A
 Frequencies --   1341.0138              1411.6964              1413.2765
 Red. masses --      8.9956                 1.2926                 1.2155
 Frc consts  --      9.5312                 1.5177                 1.4304
 IR Inten    --      0.7854                 3.5401                 4.0261

                     43                     44                     45
                      A                      A                      A
 Frequencies --   1441.6517              1445.2847              1496.7426
 Red. masses --      2.5537                 1.2213                 1.0489
 Frc consts  --      3.1271                 1.5031                 1.3845
 IR Inten    --     12.5849                 3.1354                 0.0039

                     46                     47                     48
                      A                      A                      A
 Frequencies --   1500.4514              1504.0004              1517.8723
 Red. masses --      1.0447                 1.0608                 1.0926
 Frc consts  --      1.3857                 1.4137                 1.4831
 IR Inten    --      0.1251                 2.5002                10.5672

                     49                     50                     51
                      A                      A                      A
 Frequencies --   1522.8233              1533.7987              1539.1180
 Red. masses --      1.0505                 1.2771                 1.5598
 Frc consts  --      1.4353                 1.7701                 2.1770
 IR Inten    --      4.8817                 4.0637                56.2771

                     52                     53                     54
                      A                      A                      A
 Frequencies --   1623.7959              1650.6321              3041.5406
 Red. masses --      6.8129                 5.6807                 1.0348
 Frc consts  --     10.5840                 9.1192                 5.6404
 IR Inten    --      0.7718                 4.1605                23.6531

                     55                     56                     57
                      A                      A                      A
 Frequencies --   3041.8235              3048.9865              3112.7911
 Red. masses --      1.0350                 1.0363                 1.1024
 Frc consts  --      5.6424                 5.6760                 6.2934
 IR Inten    --     26.2078                22.5100                 3.0196

                     58                     59                     60
                      A                      A                      A
 Frequencies --   3113.4454              3117.6105              3120.8817
 Red. masses --      1.1025                 1.1029                 1.1016
 Frc consts  --      6.2969                 6.3160                 6.3214
 IR Inten    --      3.8065                23.5284                90.3581

                     61                     62                     63
                      A                      A                      A
 Frequencies --   3124.5092              3126.8686              3193.5979
 Red. masses --      1.1024                 1.1017                 1.0878
 Frc consts  --      6.3411                 6.3464                 6.5366
 IR Inten    --     18.5289                41.1487                11.5067

                     64                     65                     66
                      A                      A                      A
 Frequencies --   3212.0804              3219.6356              3228.1937
 Red. masses --      1.0882                 1.0941                 1.0935
 Frc consts  --      6.6153                 6.6821                 6.7141
 IR Inten    --      1.8770                 5.8090                 6.2647

 - Thermochemistry -
 -------------------
 Temperature   298.150 Kelvin.  Pressure   1.00000 Atm.
 Atom     1 has atomic number  6 and mass  12.00000

 Molecular mass:   212.02006 amu.
 Principal axes and moments of inertia in atomic units:
                           1         2         3
     Eigenvalues --   708.593565850.901756160.51291
           X            1.00000   0.00033  -0.00000
           Y           -0.00033   1.00000   0.00000
           Z            0.00000  -0.00000   1.00000
 This molecule is an asymmetric top.
 Rotational symmetry number  1.
 Warning -- assumption of classical behavior for rotation
           may cause significant error
 Rotational temperatures (Kelvin)      0.12223     0.01480     0.01406
 Rotational constants (GHZ):           2.54693     0.30846     0.29295
 Zero-point vibrational energy     534676.9 (Joules/Mol)
                                  127.79084 (Kcal/Mol)
 Warning -- explicit consideration of  17 degrees of freedom as
           vibrations may cause significant error
 Vibrational temperatures:     73.57   100.43   227.53   284.11   329.52
          (Kelvin)            352.10   391.19   420.50   482.35   493.75
                              511.27   589.51   596.09   610.29   673.85
                              800.52   825.81   935.77  1063.28  1073.93
                             1218.38  1222.01  1225.98  1348.27  1365.24
                             1391.03  1403.62  1410.03  1477.44  1510.49
                             1520.60  1585.46  1640.00  1648.83  1757.18
                             1779.81  1783.94  1871.70  1926.20  1929.42
                             2031.12  2033.39  2074.22  2079.44  2153.48
                             2158.81  2163.92  2183.88  2191.00  2206.79
                             2214.45  2336.28  2374.89  4376.10  4376.51
                             4386.81  4478.61  4479.55  4485.55  4490.25
                             4495.47  4498.87  4594.88  4621.47  4632.34
                             4644.65

 Zero-point correction=                           0.203648 (Hartree/Particle)
 Thermal correction to Energy=                    0.214827
 Thermal correction to Enthalpy=                  0.215771
 Thermal correction to Gibbs Free Energy=         0.166035
 Sum of electronic and zero-point Energies=          -2960.473017
 Sum of electronic and thermal Energies=             -2960.461838
 Sum of electronic and thermal Enthalpies=           -2960.460893
 Sum of electronic and thermal Free Energies=        -2960.510629

                     E (Thermal)             CV                S
                      KCal/Mol        Cal/Mol-Kelvin    Cal/Mol-Kelvin
 Total                  134.806             43.173            104.678
 Electronic               0.000              0.000              0.000
 Translational            0.889              2.981             41.958
 Rotational               0.889              2.981             31.613
 Vibrational            133.029             37.211             31.107
 Vibration     1          0.595              1.977              4.773
 Vibration     2          0.598              1.969              4.159
 Vibration     3          0.621              1.894              2.572
 Vibration     4          0.637              1.843              2.157
 Vibration     5          0.652              1.797              1.887
 Vibration     6          0.660              1.772              1.768
 Vibration     7          0.675              1.725              1.584
 Vibration     8          0.688              1.688              1.461
 Vibration     9          0.716              1.605              1.235
 Vibration    10          0.722              1.589              1.197
 Vibration    11          0.731              1.564              1.142
 Vibration    12          0.774              1.449              0.928
 Vibration    13          0.778              1.439              0.912
 Vibration    14          0.786              1.418              0.878
 Vibration    15          0.826              1.320              0.742
 Vibration    16          0.912              1.126              0.531
 Vibration    17          0.930              1.088              0.497

 Optimization completed.
    -- Stationary point found.
 Normal termination of Gaussian 16 at Tue Sep 17 09:53:06 2024.

 ----------------------------------------------------------------------
 #p M062X/def2tzvp geom=check guess=read scf(xqc,tight) integral(grid=u
 ltrafine) scrf(SMD, solvent=1,4-Dioxane) polar prop=efg volume
 ----------------------------------------------------------------------

 ---
 spe
 ---
 Structure from the checkpoint file:  "smiles_00004_conf_0.chk"
 Charge =  0 Multiplicity = 1

 SCF Done:  E(RM062X) =  -2963.06272233     A.U. after   11 cycles

  Exact polarizability:     216.760       0.458     150.280       0.000       0.000     108.527
 Approx polarizability:     208.102       0.643     176.387       0.000       0.000     126.202

 Normal termination of Gaussian 16 at Tue Sep 17 10:41:41 2024.
 Gaussian 16:  ES64L-G16RevC.02  7-Dec-2021

 ----------------------------------------------------------------------
 #p M062X/def2tzvp geom=check guess=read scf(xqc,tight) integral(grid=u
 ltrafine) scrf(SMD, solvent=1,4-Dioxane) nmr=giao
 ----------------------------------------------------------------------

 ---
 spe
 ---
 Structure from the checkpoint file:  "smiles_00004_conf_0.chk"
 Charge =  0 Multiplicity = 1

                         Standard orientation:
 ---------------------------------------------------------------------
 Center     Atomic      Atomic             Coordinates (Angstroms)
 Number     Number       Type             X           Y           Z
 ---------------------------------------------------------------------
      1          6           0       -3.471273   -0.740351   -1.260350
      2          6           0       -2.976508    0.001859    0.000001
      3          6           0       -3.587517    1.412340   -0.000249
      4          6           0       -3.471149   -0.739879    1.260687
      5          6           0       -1.442534    0.033317   -0.000038
      6          6           0       -0.720630   -1.170976   -0.000034
      7          6           0        0.670621   -1.194997   -0.000022
      8          6           0        1.367572    0.010862   -0.000012
      9         35           0        3.279359   -0.005321    0.000006
     10          6           0        0.689502    1.223184   -0.000017
     11          6           0       -0.706766    1.223755   -0.000032
     12          1           0       -3.103773   -1.769619   -1.294937
     13          1           0       -3.132128   -0.232822   -2.168615
     14          1           0       -4.565837   -0.775231   -1.275508
     15          1           0       -4.679169    1.339513   -0.000250
     16          1           0       -3.293654    1.981658    0.887092
     17          1           0       -3.293621    1.981349   -0.887779
     18          1           0       -3.103615   -1.769123    1.295610
     19          1           0       -3.131911   -0.232002    2.168722
     20          1           0       -4.565712   -0.774770    1.275973
     21          1           0       -1.250368   -2.118131   -0.000036
     22          1           0        1.208568   -2.135809   -0.000021
     23          1           0        1.240639    2.156358   -0.000013
     24          1           0       -1.214902    2.180178   -0.000044
 ---------------------------------------------------------------------

 SCF Done:  E(RM062X) =  -2963.06272233     A.U. after    1 cycles

      1  C    Isotropic =   151.3984   Anisotropy =    46.4358

      2  C    Isotropic =   147.2950   Anisotropy =    14.3485

      3  C    Isotropic =   155.5889   Anisotropy =    36.0906

      4  C    Isotropic =   151.3929   Anisotropy =    46.4422

      5  C    Isotropic =     8.1972   Anisotropy =   242.3218

      6  C    Isotropic =    33.5916   Anisotropy =   209.0495

      7  C    Isotropic =    31.9456   Anisotropy =   182.3703

      8  C    Isotropic =    28.4047   Anisotropy =   134.1931

      9  Br   Isotropic =  2107.7681   Anisotropy =  1274.4124

     10  C    Isotropic =    32.0283   Anisotropy =   182.2479

     11  C    Isotropic =    37.6977   Anisotropy =   201.9301

     12  H    Isotropic =    30.3358   Anisotropy =     7.9779

     13  H    Isotropic =    30.8457   Anisotropy =     8.2647

     14  H    Isotropic =    30.7552   Anisotropy =     9.2854

     15  H    Isotropic =    30.7913   Anisotropy =     8.3489

     16  H    Isotropic =    30.3709   Anisotropy =     8.6444

     17  H    Isotropic =    30.3713   Anisotropy =     8.6444

     18  H    Isotropic =    30.3363   Anisotropy =     7.9772

     19  H    Isotropic =    30.8458   Anisotropy =     8.2641

     20  H    Isotropic =    30.7552   Anisotropy =     9.2860

     21  H    Isotropic =    23.5493   Anisotropy =    11.6798

     22  H    Isotropic =    23.6972   Anisotropy =    10.4581

     23  H    Isotropic =    23.7444   Anisotropy =    10.4863

     24  H    Isotropic =    23.7553   Anisotropy =    11.9983

 The electronic state is 1-A.
 Alpha  occ. eigenvalues -- -485.37213 -63.35693 -57.17636 -57.17403 -57.17398
 Alpha  occ. eigenvalues --  -10.59834 -10.55636 -10.55427 -10.55290 -10.55238
 Alpha  occ. eigenvalues --  -10.54782 -10.54716 -10.52286 -10.52286 -10.52253
 Alpha  occ. eigenvalues --   -9.02337  -6.84737  -6.83872  -6.83856  -2.88113
 Alpha  occ. eigenvalues --   -2.87799  -2.87779  -2.86973  -2.86973  -0.98025
 Alpha  occ. eigenvalues --   -0.92858  -0.88096  -0.85198  -0.80654  -0.77719
 Alpha  occ. eigenvalues --   -0.77540  -0.69620  -0.68821  -0.63135  -0.57324
 Alpha  occ. eigenvalues --   -0.54019  -0.52609  -0.51207  -0.50831  -0.49737
 Alpha  occ. eigenvalues --   -0.48718  -0.46700  -0.44533  -0.44141  -0.42917
 Alpha  occ. eigenvalues --   -0.42662  -0.42155  -0.39427  -0.38186  -0.37564
 Alpha  occ. eigenvalues --   -0.36701  -0.34864  -0.31646  -0.28906
 Alpha virt. eigenvalues --    0.01073   0.01548   0.03909   0.06793   0.10101
 Alpha virt. eigenvalues --    0.10325   0.11508   0.12158   0.12200   0.13019
 Alpha virt. eigenvalues --    0.13587   0.15063   0.15370   0.16574   0.16621

 Mulliken charges:
               1
     1  C   -0.435295
     2  C   -0.056104
     3  C   -0.535417
     4  C   -0.435280
     5  C    0.124585
     6  C   -0.232784
     7  C   -0.180474
     8  C    0.038842
     9  Br  -0.123321
    10  C   -0.173513
    11  C   -0.170359
    12  H    0.152018
    13  H    0.163352
    14  H    0.156755
    15  H    0.164839
    16  H    0.172293
    17  H    0.172310
    18  H    0.152023
    19  H    0.163348
    20  H    0.156753
    21  H    0.184738
    22  H    0.178579
    23  H    0.176830
    24  H    0.185285
 Sum of Mulliken charges =  -0.00000

 Dipole moment (field-independent basis, Debye):
    X=             -2.8900    Y=             -0.0148    Z=              0.0000  Tot=              2.8900
 Quadrupole moment (field-independent basis, Debye-Ang):
   XX=            -80.2867   YY=            -74.7903   ZZ=            -84.0429
   XY=              0.0244   XZ=             -0.0000   YZ=              0.0000

 Normal termination of Gaussian 16 at Tue Sep 17 10:59:14 2024.
