 Gaussian 16, Revision C.02,

 ----------------------------------------------------------------------
 #p B3LYP/6-31G(d,p) EmpiricalDispersion=GD3BJ opt freq scf(xqc,tight)
 integral(grid=ultrafine)
 ----------------------------------------------------------------------

 ----------------------------------
 opt-freq conformers_unique/conf_ab
 ----------------------------------
 Symbolic Z-matrix:
 Charge =  0 Multiplicity = 1

 SCF Done:  E(RB3LYP) =  -3315.31959666     A.U. after   15 cycles
 SCF Done:  E(RB3LYP) =  -3315.32175783     A.U. after   12 cycles
 SCF Done:  E(RB3LYP) =  -3315.32191676     A.U. after   11 cycles
 SCF Done:  E(RB3LYP) =  -3315.32193429     A.U. after    9 cycles
 Optimization completed.
    -- Stationary point found.
 Normal termination of Gaussian 16 at Tue Sep 17 09:57:17 2024.

 ----------------------------------------------------------------------
 #P Geom=AllCheck Guess=TCheck SCRF=Check GenChk RB3LYP/6-31G(d,p) Freq
 ----------------------------------------------------------------------

 Structure from the checkpoint file:  "smiles_00078_conf_1.chk"
 ----------------------------------
 opt-freq conformers_unique/conf_ab
 ----------------------------------
 Charge =  0 Multiplicity = 1

 SCF Done:  E(RB3LYP) =  -3315.32193429     A.U. after    1 cycles

 The electronic state is 1-A.
 Alpha  occ. eigenvalues -- -482.90695 -61.86864 -56.38999 -56.38589 -56.38579
 Alpha  occ. eigenvalues --  -19.16352 -19.16351 -14.41145 -10.32820 -10.32819
 Alpha  occ. eigenvalues --  -10.25039 -10.24323 -10.22819 -10.22812 -10.22745
 Alpha  occ. eigenvalues --  -10.22716 -10.22690 -10.22668 -10.20217 -10.20217
 Alpha  occ. eigenvalues --  -10.19700 -10.19699  -8.58002  -6.53394  -6.52128
 Alpha  occ. eigenvalues --   -6.52100  -2.64967  -2.64605  -2.64585  -2.63574
 Alpha  occ. eigenvalues --   -2.63574  -1.08558  -1.06907  -0.97740  -0.89756
 Alpha  occ. eigenvalues --   -0.87104  -0.81891  -0.78533  -0.78502  -0.75854
 Alpha  occ. eigenvalues --   -0.72849  -0.68251  -0.66662  -0.63908  -0.61017
 Alpha  occ. eigenvalues --   -0.60350  -0.58042  -0.53801  -0.52725  -0.50241
 Alpha  occ. eigenvalues --   -0.48822  -0.47789  -0.47019  -0.46993  -0.46145
 Alpha  occ. eigenvalues --   -0.45442  -0.45157  -0.43697  -0.42537  -0.41265
 Alpha  occ. eigenvalues --   -0.40175  -0.39579  -0.38550  -0.38279  -0.36893
 Alpha  occ. eigenvalues --   -0.36376  -0.33910  -0.29630  -0.29630  -0.28641
 Alpha  occ. eigenvalues --   -0.28407  -0.28383  -0.27612  -0.26139  -0.22769
 Alpha virt. eigenvalues --   -0.09275  -0.05612  -0.01118  -0.00811   0.01240
 Alpha virt. eigenvalues --    0.01901   0.06962   0.08070   0.11645   0.12381
 Alpha virt. eigenvalues --    0.14868   0.15059   0.15542   0.15643   0.15658

 Mulliken charges:
               1
     1  O   -0.472760
     2  C    0.599307
     3  C    0.028024
     4  C   -0.115175
     5  C   -0.083913
     6  C   -0.083913
     7  C   -0.115175
     8  C    0.028024
     9  C    0.599307
    10  O   -0.472760
    11  N   -0.686713
    12  C    0.291933
    13  C   -0.102422
    14  C   -0.111762
    15  C    0.064233
    16  Br  -0.132993
    17  C   -0.111762
    18  C   -0.102422
    19  H    0.124836
    20  H    0.107889
    21  H    0.107889
    22  H    0.124836
    23  H    0.146087
    24  H    0.111659
    25  H    0.111659
    26  H    0.146087
 Sum of Mulliken charges =  -0.00000

 Dipole moment (field-independent basis, Debye):
    X=             -5.0833    Y=              0.0000    Z=             -0.0000  Tot=              5.0833
 Quadrupole moment (field-independent basis, Debye-Ang):
   XX=            -90.5661   YY=           -114.7457   ZZ=           -115.5858
   XY=             -0.0000   XZ=             -0.0000   YZ=              0.0004

  Exact polarizability:     307.371       0.000     171.821      -0.000       0.001      61.118
 Approx polarizability:     410.467       0.000     352.072      -0.000       0.001     100.310

 ******    1 imaginary frequencies (negative Signs) ******

                      1                      2                      3
                      A                      A                      A
 Frequencies --    -50.4572                30.5913                90.2735
 Red. masses --      4.3149                 8.3995                 9.0399
 Frc consts  --      0.0065                 0.0046                 0.0434
 IR Inten    --      0.0000                 0.9877                 2.8867

                      4                      5                      6
                      A                      A                      A
 Frequencies --     98.9887               132.7550               164.5849
 Red. masses --      8.2973                 4.9992                 8.4360
 Frc consts  --      0.0479                 0.0519                 0.1346
 IR Inten    --      0.2053                 0.0000                 2.7255

                      7                      8                      9
                      A                      A                      A
 Frequencies --    197.2854               219.4577               221.0625
 Red. masses --     17.4160                 6.6894                 7.4890
 Frc consts  --      0.3994                 0.1898                 0.2156
 IR Inten    --      0.0001                 0.0221                 0.5911

                     10                     11                     12
                      A                      A                      A
 Frequencies --    301.5690               359.3111               361.7287
 Red. masses --      9.9083                 4.6210                 6.6117
 Frc consts  --      0.5309                 0.3515                 0.5097
 IR Inten    --      1.5716                 0.2632                 0.2382

                     13                     14                     15
                      A                      A                      A
 Frequencies --    381.9807               416.5322               419.8829
 Red. masses --     10.1429                 9.1520                 3.2936
 Frc consts  --      0.8720                 0.9355                 0.3421
 IR Inten    --      4.2792                40.4813                 0.1618

                     16                     17                     18
                      A                      A                      A
 Frequencies --    419.9006               460.9973               525.8380
 Red. masses --      3.1148                 4.9542                 2.9608
 Frc consts  --      0.3236                 0.6203                 0.4824
 IR Inten    --      0.0000                 0.0000                12.1858

                     19                     20                     21
                      A                      A                      A
 Frequencies --    544.1685               582.5960               649.2719
 Red. masses --      7.5657                10.3724                 7.1660
 Frc consts  --      1.3200                 2.0743                 1.7798
 IR Inten    --      9.6666                 4.4524                 0.4778

                     22                     23                     24
                      A                      A                      A
 Frequencies --    658.5934               674.6107               714.6106
 Red. masses --      9.1874                 5.2017                 3.2780
 Frc consts  --      2.3479                 1.3948                 0.9863
 IR Inten    --      4.8902                 0.0000                50.2860

                     25                     26                     27
                      A                      A                      A
 Frequencies --    724.9742               729.0111               732.1164
 Red. masses --      7.4146                 3.9082                 6.8205
 Frc consts  --      2.2961                 1.2237                 2.1539
 IR Inten    --      2.8758                 0.4384                19.4966

                     28                     29                     30
                      A                      A                      A
 Frequencies --    773.9989               796.8461               850.5048
 Red. masses --      6.8385                 1.5842                 1.2441
 Frc consts  --      2.4137                 0.5927                 0.5302
 IR Inten    --      0.0000                17.2570                 0.0000

                     31                     32                     33
                      A                      A                      A
 Frequencies --    856.0592               859.9127               896.1889
 Red. masses --      1.5149                 6.5007                 7.8288
 Frc consts  --      0.6541                 2.8322                 3.7046
 IR Inten    --     47.9929                32.7845                22.4988

                     34                     35                     36
                      A                      A                      A
 Frequencies --    909.8844               975.2716               991.2205
 Red. masses --      1.3227                 1.3797                 1.3184
 Frc consts  --      0.6452                 0.7732                 0.7632
 IR Inten    --      0.0000                 0.9143                 0.6193

                     37                     38                     39
                      A                      A                      A
 Frequencies --    993.4208              1010.0210              1028.3126
 Red. masses --      1.3239                 1.3029                 4.8819
 Frc consts  --      0.7698                 0.7831                 3.0415
 IR Inten    --      0.0000                 0.0000                36.4406

                     40                     41                     42
                      A                      A                      A
 Frequencies --   1037.7787              1067.9796              1106.8104
 Red. masses --      2.1511                 7.7472                 2.9702
 Frc consts  --      1.3649                 5.2062                 2.1438
 IR Inten    --      5.5605                92.3257                27.3670

                     43                     44                     45
                      A                      A                      A
 Frequencies --   1111.2710              1131.0662              1158.7073
 Red. masses --      2.2630                 2.8786                 1.3156
 Frc consts  --      1.6465                 2.1697                 1.0407
 IR Inten    --      0.1187                 1.3717                17.7666

                     46                     47                     48
                      A                      A                      A
 Frequencies --   1188.4545              1202.9715              1224.1960
 Red. masses --      1.1603                 2.3276                 1.1858
 Frc consts  --      0.9656                 1.9846                 1.0471
 IR Inten    --      8.7380                 0.6010                 3.1555

                     49                     50                     51
                      A                      A                      A
 Frequencies --   1256.8670              1312.3119              1339.2144
 Red. masses --      3.8614                 1.5811                 3.7601
 Frc consts  --      3.5939                 1.6043                 3.9733
 IR Inten    --     19.6327                 0.8321                 0.5815

                     52                     53                     54
                      A                      A                      A
 Frequencies --   1347.4445              1367.2259              1412.0728
 Red. masses --      1.6809                 8.4487                 6.2476
 Frc consts  --      1.7981                 9.3051                 7.3397
 IR Inten    --      0.0867               624.2174               137.2466

                     55                     56                     57
                      A                      A                      A
 Frequencies --   1454.6759              1509.5267              1514.6427
 Red. masses --      2.9908                 2.5028                 2.6876
 Frc consts  --      3.7288                 3.3601                 3.6327
 IR Inten    --     10.1310                 6.4096                 4.5992

                     58                     59                     60
                      A                      A                      A
 Frequencies --   1536.5263              1622.5167              1648.9357
 Red. masses --      2.2642                 7.4182                 5.5966
 Frc consts  --      3.1495                11.5060                 8.9656
 IR Inten    --    278.4620                 0.3239                 2.6428

                     61                     62                     63
                      A                      A                      A
 Frequencies --   1663.2962              1674.2060              1798.8862
 Red. masses --      6.9829                 7.7204                12.3169
 Frc consts  --     11.3821                12.7500                23.4832
 IR Inten    --     15.0244                 1.2246               461.9379

                     64                     65                     66
                      A                      A                      A
 Frequencies --   1850.7362              3195.4967              3208.5340
 Red. masses --     12.8277                 1.0871                 1.0911
 Frc consts  --     25.8874                 6.5402                 6.6183
 IR Inten    --     23.9259                 1.9369                 8.7259

                     67                     68                     69
                      A                      A                      A
 Frequencies --   3219.7138              3219.8853              3220.9537
 Red. masses --      1.0917                 1.0918                 1.0939
 Frc consts  --      6.6676                 6.6691                 6.6867
 IR Inten    --      2.9844                 0.9981                 3.0523

                     70                     71                     72
                      A                      A                      A
 Frequencies --   3223.9812              3286.8672              3287.3530
 Red. masses --      1.0965                 1.0921                 1.0910
 Frc consts  --      6.7150                 6.9515                 6.9468
 IR Inten    --     10.7254                26.1884                 4.1325

 - Thermochemistry -
 -------------------
 Temperature   298.150 Kelvin.  Pressure   1.00000 Atm.
 Atom     1 has atomic number  8 and mass  15.99491

 Molecular mass:   300.97384 amu.
 Principal axes and moments of inertia in atomic units:
                           1         2         3
     Eigenvalues --  1363.53449********************
           X            1.00000  -0.00000  -0.00000
           Y            0.00000   1.00000   0.00000
           Z            0.00000  -0.00000   1.00000
 This molecule is an asymmetric top.
 Rotational symmetry number  1.
 Warning -- assumption of classical behavior for rotation
           may cause significant error
 Rotational temperatures (Kelvin)      0.06352     0.00586     0.00536
 Rotational constants (GHZ):           1.32358     0.12207     0.11176
    1 imaginary frequencies ignored.
 Zero-point vibrational energy     491398.7 (Joules/Mol)
                                  117.44710 (Kcal/Mol)
 Warning -- explicit consideration of  19 degrees of freedom as
           vibrations may cause significant error
 Vibrational temperatures:     44.01   129.88   142.42   191.00   236.80
          (Kelvin)            283.85   315.75   318.06   433.89   516.97
                              520.45   549.58   599.30   604.12   604.14
                              663.27   756.56   782.94   838.23   934.16
                              947.57   970.61  1028.17  1043.08  1048.88
                             1053.35  1113.61  1146.48  1223.69  1231.68
                             1237.22  1289.42  1309.12  1403.20  1426.15
                             1429.31  1453.20  1479.51  1493.13  1536.58
                             1592.45  1598.87  1627.35  1667.12  1709.92
                             1730.81  1761.35  1808.35  1888.12  1926.83
                             1938.67  1967.13  2031.66  2092.95  2171.87
                             2179.23  2210.72  2334.44  2372.45  2393.11
                             2408.81  2588.20  2662.80  4597.61  4616.36
                             4632.45  4632.70  4634.23  4638.59  4729.07
                             4729.77

 Zero-point correction=                           0.187164 (Hartree/Particle)
 Thermal correction to Energy=                    0.200162
 Thermal correction to Enthalpy=                  0.201106
 Thermal correction to Gibbs Free Energy=         0.146046
 Sum of electronic and zero-point Energies=          -3315.134770
 Sum of electronic and thermal Energies=             -3315.121773
 Sum of electronic and thermal Enthalpies=           -3315.120829
 Sum of electronic and thermal Free Energies=        -3315.175888

                     E (Thermal)             CV                S
                      KCal/Mol        Cal/Mol-Kelvin    Cal/Mol-Kelvin
 Total                  125.603             51.808            115.883
 Electronic               0.000              0.000              0.000
 Translational            0.889              2.981             43.002
 Rotational               0.889              2.981             34.142
 Vibrational            123.826             45.847             38.739
 Vibration     1          0.594              1.984              5.791
 Vibration     2          0.602              1.956              3.654
 Vibration     3          0.604              1.950              3.474
 Vibration     4          0.613              1.921              2.906
 Vibration     5          0.623              1.886              2.496
 Vibration     6          0.637              1.844              2.158
 Vibration     7          0.647              1.811              1.964
 Vibration     8          0.648              1.809              1.950
 Vibration     9          0.694              1.671              1.408
 Vibration    10          0.734              1.556              1.125
 Vibration    11          0.736              1.551              1.115
 Vibration    12          0.751              1.509              1.031
 Vibration    13          0.780              1.434              0.904
 Vibration    14          0.783              1.427              0.892
 Vibration    15          0.783              1.427              0.892
 Vibration    16          0.819              1.337              0.763
 Vibration    17          0.881              1.193              0.597
 Vibration    18          0.899              1.152              0.556
 Vibration    19          0.939              1.069              0.481

 Optimization completed.
    -- Stationary point found.
 Normal termination of Gaussian 16 at Tue Sep 17 10:00:45 2024.
 Gaussian 16:  ES64L-G16RevC.02  7-Dec-2021

 ----------------------------------------------------------------------
 #p M062X/def2tzvp geom=check guess=read scf(xqc,tight) integral(grid=u
 ltrafine) scrf(SMD, solvent=1,4-Dioxane) polar prop=efg volume
 ----------------------------------------------------------------------

 ---
 spe
 ---
 Structure from the checkpoint file:  "smiles_00078_conf_1.chk"
 Charge =  0 Multiplicity = 1

                         Standard orientation:
 ---------------------------------------------------------------------
 Center     Atomic      Atomic             Coordinates (Angstroms)
 Number     Number       Type             X           Y           Z
 ---------------------------------------------------------------------
      1          8           0       -1.589640   -2.323432    0.000029
      2          6           0       -1.958669   -1.167446    0.000006
      3          6           0       -3.365428   -0.694433    0.000007
      4          6           0       -4.544027   -1.424128    0.000022
      5          6           0       -5.742868   -0.700454    0.000017
      6          6           0       -5.742868    0.700454   -0.000002
      7          6           0       -4.544027    1.424129   -0.000016
      8          6           0       -3.365428    0.694433   -0.000011
      9          6           0       -1.958669    1.167446   -0.000022
     10          8           0       -1.589640    2.323432   -0.000034
     11          7           0       -1.136280   -0.000000   -0.000005
     12          6           0        0.295836   -0.000000   -0.000003
     13          6           0        1.009295   -1.210112   -0.000048
     14          6           0        2.401322   -1.206109   -0.000046
     15          6           0        3.092387   -0.000000    0.000001
     16         35           0        5.001397    0.000000    0.000003
     17          6           0        2.401322    1.206109    0.000046
     18          6           0        1.009295    1.210111    0.000044
     19          1           0       -4.527834   -2.508405    0.000036
     20          1           0       -6.689006   -1.231991    0.000028
     21          1           0       -6.689006    1.231992   -0.000005
     22          1           0       -4.527834    2.508406   -0.000030
     23          1           0        0.482748   -2.150741   -0.000083
     24          1           0        2.941316   -2.145520   -0.000081
     25          1           0        2.941316    2.145519    0.000082
     26          1           0        0.482748    2.150741    0.000079
 ---------------------------------------------------------------------

 SCF Done:  E(RM062X) =  -3317.73192902     A.U. after   12 cycles
