 Gaussian 16, Revision C.02,

 ----------------------------------------------------------------------
 #p B3LYP/6-31G(d,p) EmpiricalDispersion=GD3BJ opt freq scf(xqc,tight)
 integral(grid=ultrafine)
 ----------------------------------------------------------------------

 ----------------------------------
 opt-freq conformers_unique/conf_aa
 ----------------------------------
 Symbolic Z-matrix:
 Charge =  0 Multiplicity = 1

 SCF Done:  E(RB3LYP) =  -3011.42001314     A.U. after   15 cycles
 SCF Done:  E(RB3LYP) =  -3011.42133183     A.U. after   12 cycles
 SCF Done:  E(RB3LYP) =  -3011.42138446     A.U. after   10 cycles
 SCF Done:  E(RB3LYP) =  -3011.42140582     A.U. after   11 cycles
 SCF Done:  E(RB3LYP) =  -3011.42140689     A.U. after    8 cycles
 Optimization completed.
    -- Stationary point found.
 Normal termination of Gaussian 16 at Tue Sep 17 09:46:10 2024.

 ----------------------------------------------------------------------
 #P Geom=AllCheck Guess=TCheck SCRF=Check GenChk RB3LYP/6-31G(d,p) Freq
 ----------------------------------------------------------------------

 Structure from the checkpoint file:  "smiles_00008_conf_0.chk"
 ----------------------------------
 opt-freq conformers_unique/conf_aa
 ----------------------------------
 Charge =  0 Multiplicity = 1

 SCF Done:  E(RB3LYP) =  -3011.42140689     A.U. after    1 cycles
 ******    1 imaginary frequencies (negative Signs) ******

                      1                      2                      3
                      A                      A                      A
 Frequencies --    -54.7786                49.2846                66.3449
 Red. masses --      1.0825                 5.2799                 4.1693
 Frc consts  --      0.0019                 0.0076                 0.0108
 IR Inten    --      0.2313                 0.7136                 5.9463

                      4                      5                      6
                      A                      A                      A
 Frequencies --    127.7488               143.7920               235.5682
 Red. masses --      6.4955                 5.3035                10.8243
 Frc consts  --      0.0625                 0.0646                 0.3539
 IR Inten    --      3.4994                 0.1732                 0.0039

                      7                      8                      9
                      A                      A                      A
 Frequencies --    253.3066               332.1539               369.9527
 Red. masses --      4.9483                 5.6968                 4.5246
 Frc consts  --      0.1871                 0.3703                 0.3649
 IR Inten    --      4.8756                 0.0921                 0.1261

                     10                     11                     12
                      A                      A                      A
 Frequencies --    403.7853               424.5837               518.1777
 Red. masses --      4.9843                 3.1119                 2.3611
 Frc consts  --      0.4788                 0.3305                 0.3735
 IR Inten    --     16.5232                 0.0391                34.0082

                     13                     14                     15
                      A                      A                      A
 Frequencies --    536.3661               574.9077               610.1767
 Red. masses --      1.5237                 4.4386                 1.9063
 Frc consts  --      0.2583                 0.8644                 0.4182
 IR Inten    --     42.0881                 2.3854                 7.9876

                     16                     17                     18
                      A                      A                      A
 Frequencies --    647.1471               700.1047               726.9651
 Red. masses --      6.9796                 5.8485                 3.5076
 Frc consts  --      1.7222                 1.6890                 1.0922
 IR Inten    --      0.1772                18.6913                 0.2934

                     19                     20                     21
                      A                      A                      A
 Frequencies --    825.4178               846.4591               862.5525
 Red. masses --      1.4024                 4.3800                 1.4015
 Frc consts  --      0.5630                 1.8490                 0.6143
 IR Inten    --     21.3892                 6.1545                29.0940

                     22                     23                     24
                      A                      A                      A
 Frequencies --    955.5866               967.6740               996.1759
 Red. masses --      1.3335                 6.3117                 1.3191
 Frc consts  --      0.7174                 3.4822                 0.7712
 IR Inten    --      0.0274                 8.1251                 0.7028

                     25                     26                     27
                      A                      A                      A
 Frequencies --   1008.8885              1027.0913              1050.8683
 Red. masses --      1.6825                 4.1339                 1.7152
 Frc consts  --      1.0090                 2.5694                 1.1160
 IR Inten    --     19.0492                32.0892                 4.4162

                     28                     29                     30
                      A                      A                      A
 Frequencies --   1098.6484              1143.8435              1207.6941
 Red. masses --      2.4778                 1.3132                 1.1322
 Frc consts  --      1.7621                 1.0123                 0.9730
 IR Inten    --     26.7738                12.9418                11.2160

                     31                     32                     33
                      A                      A                      A
 Frequencies --   1254.6838              1281.7618              1331.0069
 Red. masses --      3.0758                 2.3037                 1.3543
 Frc consts  --      2.8528                 2.2299                 1.4136
 IR Inten    --     57.3046                69.8143                 6.8262

                     34                     35                     36
                      A                      A                      A
 Frequencies --   1351.6600              1400.5428              1437.5470
 Red. masses --      6.1839                 1.3158                 2.9124
 Frc consts  --      6.6565                 1.5206                 3.5460
 IR Inten    --    103.2036                26.3685                86.3819

                     37                     38                     39
                      A                      A                      A
 Frequencies --   1484.2654              1497.9693              1534.2274
 Red. masses --      1.0757                 1.0454                 2.2755
 Frc consts  --      1.3963                 1.3821                 3.1558
 IR Inten    --     17.8174                 8.6911                80.1595

                     40                     41                     42
                      A                      A                      A
 Frequencies --   1560.1313              1641.4878              1654.5210
 Red. masses --      2.2752                 4.6873                 5.8251
 Frc consts  --      3.2627                 7.4414                 9.3951
 IR Inten    --    466.4435                42.8199                24.5822

                     43                     44                     45
                      A                      A                      A
 Frequencies --   1798.7265              3051.6747              3115.5256
 Red. masses --      8.7108                 1.0390                 1.1013
 Frc consts  --     16.6050                 5.7007                 6.2983
 IR Inten    --    199.6670                 5.2585                10.8384

                     46                     47                     48
                      A                      A                      A
 Frequencies --   3172.4760              3181.9133              3218.8661
 Red. masses --      1.0897                 1.1004                 1.0914
 Frc consts  --      6.4615                 6.5640                 6.6628
 IR Inten    --     15.7734                 4.4355                 1.7754

                     49                     50                     51
                      A                      A                      A
 Frequencies --   3222.7956              3270.8871              3627.3599
 Red. masses --      1.0934                 1.0924                 1.0768
 Frc consts  --      6.6913                 6.8862                 8.3480
 IR Inten    --      2.1451                 8.3802                17.9555

 - Thermochemistry -
 -------------------
 Temperature   298.150 Kelvin.  Pressure   1.00000 Atm.
 Atom     1 has atomic number  6 and mass  12.00000

 Molecular mass:   212.97893 amu.
 Principal axes and moments of inertia in atomic units:
                           1         2         3
     Eigenvalues --   515.843636576.438147080.98472
           X            0.99999   0.00459   0.00000
           Y           -0.00459   0.99999   0.00001
           Z           -0.00000  -0.00001   1.00000
 This molecule is an asymmetric top.
 Rotational symmetry number  1.
 Warning -- assumption of classical behavior for rotation
           may cause significant error
 Rotational temperatures (Kelvin)      0.16791     0.01317     0.01223
 Rotational constants (GHZ):           3.49862     0.27443     0.25487
    1 imaginary frequencies ignored.
 Zero-point vibrational energy     381616.5 (Joules/Mol)
                                   91.20853 (Kcal/Mol)
 Warning -- explicit consideration of  14 degrees of freedom as
           vibrations may cause significant error
 Vibrational temperatures:     70.91    95.46   183.80   206.88   338.93
          (Kelvin)            364.45   477.90   532.28   580.96   610.88
                              745.54   771.71   827.16   877.91   931.10
                             1007.29  1045.94  1187.59  1217.87  1241.02
                             1374.88  1392.27  1433.27  1451.57  1477.76
                             1511.97  1580.71  1645.74  1737.60  1805.21
                             1844.17  1915.02  1944.74  2015.07  2068.31
                             2135.53  2155.24  2207.41  2244.68  2361.73
                             2380.49  2587.97  4390.68  4482.55  4564.49
                             4578.06  4631.23  4636.88  4706.08  5218.96

 Zero-point correction=                           0.145350 (Hartree/Particle)
 Thermal correction to Energy=                    0.155115
 Thermal correction to Enthalpy=                  0.156059
 Thermal correction to Gibbs Free Energy=         0.108274
 Sum of electronic and zero-point Energies=          -3011.276057
 Sum of electronic and thermal Energies=             -3011.266292
 Sum of electronic and thermal Enthalpies=           -3011.265348
 Sum of electronic and thermal Free Energies=        -3011.313133

                     E (Thermal)             CV                S
                      KCal/Mol        Cal/Mol-Kelvin    Cal/Mol-Kelvin
 Total                   97.336             36.241            100.573
 Electronic               0.000              0.000              0.000
 Translational            0.889              2.981             41.972
 Rotational               0.889              2.981             31.552
 Vibrational             95.559             30.279             27.049
 Vibration     1          0.595              1.978              4.846
 Vibration     2          0.598              1.970              4.259
 Vibration     3          0.611              1.925              2.980
 Vibration     4          0.616              1.909              2.753
 Vibration     5          0.655              1.786              1.836
 Vibration     6          0.664              1.757              1.707
 Vibration     7          0.714              1.611              1.250
 Vibration     8          0.742              1.534              1.080
 Vibration     9          0.769              1.462              0.949
 Vibration    10          0.787              1.417              0.877
 Vibration    11          0.873              1.210              0.614
 Vibration    12          0.891              1.170              0.573
 Vibration    13          0.931              1.086              0.495
 Vibration    14          0.969              1.010              0.432

                           ! Non-Optimized Parameters !
 Normal termination of Gaussian 16 at Tue Sep 17 09:47:08 2024.

 ----------------------------------------------------------------------
 #p M062X/def2tzvp geom=check guess=read scf(xqc,tight) integral(grid=u
 ltrafine) scrf(SMD, solvent=1,4-Dioxane) polar prop=efg volume
 ----------------------------------------------------------------------

 ---
 spe
 ---
 Structure from the checkpoint file:  "smiles_00008_conf_0.chk"
 Charge =  0 Multiplicity = 1

 SCF Done:  E(RM062X) =  -3013.85304481     A.U. after   12 cycles

  Exact polarizability:     218.330       0.962     137.306       0.002       0.003      79.861
 Approx polarizability:     202.447      -0.266     167.330       0.000       0.003      98.832

 Normal termination of Gaussian 16 at Tue Sep 17 10:14:37 2024.
 Gaussian 16:  ES64L-G16RevC.02  7-Dec-2021

 ----------------------------------------------------------------------
 #p M062X/def2tzvp geom=check guess=read scf(xqc,tight) integral(grid=u
 ltrafine) scrf(SMD, solvent=1,4-Dioxane) nmr=giao
 ----------------------------------------------------------------------

 ---
 spe
 ---
 Structure from the checkpoint file:  "smiles_00008_conf_0.chk"
 Charge =  0 Multiplicity = 1

                         Standard orientation:
 ---------------------------------------------------------------------
 Center     Atomic      Atomic             Coordinates (Angstroms)
 Number     Number       Type             X           Y           Z
 ---------------------------------------------------------------------
      1          6           0        5.118387    0.352484    0.000283
      2          6           0        3.740829   -0.292338    0.000157
      3          8           0        3.579534   -1.502803    0.000072
      4          7           0        2.707448    0.622667   -0.000335
      5          6           0        1.320433    0.387132   -0.000209
      6          6           0        0.759017   -0.898582   -0.000264
      7          6           0       -0.626190   -1.046616   -0.000166
      8          6           0       -1.450807    0.074388   -0.000031
      9         35           0       -3.349007   -0.143519    0.000089
     10          6           0       -0.907403    1.356258    0.000014
     11          6           0        0.474669    1.506355   -0.000072
     12          1           0        5.258833    0.978970    0.887611
     13          1           0        5.257318    0.983467   -0.884083
     14          1           0        5.867449   -0.437872   -0.002279
     15          1           0        2.975684    1.596179   -0.000432
     16          1           0        1.408635   -1.761097   -0.000347
     17          1           0       -1.061405   -2.039072   -0.000201
     18          1           0       -1.554249    2.225399    0.000123
     19          1           0        0.900966    2.506466   -0.000025
 ---------------------------------------------------------------------

 SCF Done:  E(RM062X) =  -3013.85304481     A.U. after    1 cycles

      1  C    Isotropic =   159.1148   Anisotropy =    55.6136

      2  C    Isotropic =    -3.4641   Anisotropy =   136.3495

      3  O    Isotropic =  -179.0500   Anisotropy =   747.6065

      4  N    Isotropic =    95.9238   Anisotropy =   134.4027

      5  C    Isotropic =    24.5252   Anisotropy =   186.1129

      6  C    Isotropic =    46.4348   Anisotropy =   198.0772

      7  C    Isotropic =    29.6225   Anisotropy =   187.5234

      8  C    Isotropic =    33.9204   Anisotropy =   129.6102

      9  Br   Isotropic =  2105.8305   Anisotropy =  1286.9482

     10  C    Isotropic =    31.7092   Anisotropy =   184.8439

     11  C    Isotropic =    48.6060   Anisotropy =   164.4371

     12  H    Isotropic =    29.6303   Anisotropy =     5.8057

     13  H    Isotropic =    29.6330   Anisotropy =     5.8029

     14  H    Isotropic =    29.9434   Anisotropy =     7.2587

     15  H    Isotropic =    24.4679   Anisotropy =     8.7912

     16  H    Isotropic =    22.2109   Anisotropy =    10.9802

     17  H    Isotropic =    23.6643   Anisotropy =    10.4273

     18  H    Isotropic =    23.7994   Anisotropy =    10.0605

     19  H    Isotropic =    24.5224   Anisotropy =     7.4826

 The electronic state is 1-A.
 Alpha  occ. eigenvalues -- -485.37316 -63.35794 -57.17739 -57.17503 -57.17499
 Alpha  occ. eigenvalues --  -19.60626 -14.79318 -10.65907 -10.60193 -10.59878
 Alpha  occ. eigenvalues --  -10.55943 -10.55707 -10.55631 -10.54788 -10.54472
 Alpha  occ. eigenvalues --   -9.02438  -6.84842  -6.83969  -6.83957  -2.88218
 Alpha  occ. eigenvalues --   -2.87901  -2.87883  -2.87070  -2.87070  -1.17214
 Alpha  occ. eigenvalues --   -1.05979  -0.97504  -0.89852  -0.85834  -0.84857
 Alpha  occ. eigenvalues --   -0.80326  -0.72420  -0.69931  -0.65840  -0.62221
 Alpha  occ. eigenvalues --   -0.57120  -0.54729  -0.53747  -0.52749  -0.51822
 Alpha  occ. eigenvalues --   -0.49939  -0.48851  -0.47839  -0.46799  -0.44562
 Alpha  occ. eigenvalues --   -0.42551  -0.42118  -0.40323  -0.35234  -0.35042
 Alpha  occ. eigenvalues --   -0.33977  -0.32241  -0.27481
 Alpha virt. eigenvalues --    0.00470   0.00783   0.03755   0.05761   0.06875
 Alpha virt. eigenvalues --    0.09566   0.10710   0.12478   0.13291   0.13734
 Alpha virt. eigenvalues --    0.14916   0.15002   0.16012   0.17893   0.18305

 Mulliken charges:
               1
     1  C   -0.519018
     2  C    0.394926
     3  O   -0.408086
     4  N   -0.358612
     5  C    0.248607
     6  C   -0.228910
     7  C   -0.153334
     8  C    0.013810
     9  Br  -0.120934
    10  C   -0.162317
    11  C   -0.234670
    12  H    0.174022
    13  H    0.173846
    14  H    0.169994
    15  H    0.267790
    16  H    0.209994
    17  H    0.181358
    18  H    0.180058
    19  H    0.171476
 Sum of Mulliken charges =  -0.00000

 Dipole moment (field-independent basis, Debye):
    X=              3.0674    Y=              4.3351    Z=              0.0003  Tot=              5.3106
 Quadrupole moment (field-independent basis, Debye-Ang):
   XX=            -70.9770   YY=            -72.7460   ZZ=            -80.4070
   XY=             14.5042   XZ=              0.0018   YZ=              0.0007

 Normal termination of Gaussian 16 at Tue Sep 17 10:24:39 2024.
