 Gaussian 16, Revision C.02,

 ----------------------------------------------------------------------
 #p B3LYP/6-31G(d,p) EmpiricalDispersion=GD3BJ opt freq scf(xqc,tight)
 integral(grid=ultrafine)
 ----------------------------------------------------------------------

 ----------------------------------
 opt-freq conformers_unique/conf_ab
 ----------------------------------
 Symbolic Z-matrix:
 Charge =  0 Multiplicity = 1

 SCF Done:  E(RB3LYP) =  -860.566250936     A.U. after   15 cycles
 SCF Done:  E(RB3LYP) =  -860.568075201     A.U. after   12 cycles
 SCF Done:  E(RB3LYP) =  -860.568220255     A.U. after   11 cycles
 SCF Done:  E(RB3LYP) =  -860.568238664     A.U. after    9 cycles
 SCF Done:  E(RB3LYP) =  -860.568239677     A.U. after    8 cycles
 Optimization completed.
    -- Stationary point found.
 Normal termination of Gaussian 16 at Tue Sep 17 09:52:32 2024.

 ----------------------------------------------------------------------
 #P Geom=AllCheck Guess=TCheck SCRF=Check GenChk RB3LYP/6-31G(d,p) Freq
 ----------------------------------------------------------------------

 Structure from the checkpoint file:  "smiles_00113_conf_1.chk"
 ----------------------------------
 opt-freq conformers_unique/conf_ab
 ----------------------------------
 Charge =  0 Multiplicity = 1

 SCF Done:  E(RB3LYP) =  -860.568239677     A.U. after    1 cycles

                      1                      2                      3
                      A                      A                      A
 Frequencies --     61.7576                84.3866               167.2846
 Red. masses --      3.9918                 9.7864                 1.0322
 Frc consts  --      0.0090                 0.0411                 0.0170
 IR Inten    --      0.5136                 1.2364                 0.1841

                      4                      5                      6
                      A                      A                      A
 Frequencies --    173.1060               250.6897               308.5370
 Red. masses --      5.8326                 6.3734                 6.6856
 Frc consts  --      0.1030                 0.2360                 0.3750
 IR Inten    --      3.1279                 0.5533                 2.6561

                      7                      8                      9
                      A                      A                      A
 Frequencies --    323.8818               422.3879               451.5290
 Red. masses --      6.8950                 3.5560                 4.1332
 Frc consts  --      0.4261                 0.3738                 0.4965
 IR Inten    --      0.6235                 4.2916                 6.8234

                     10                     11                     12
                      A                      A                      A
 Frequencies --    482.0527               523.8376               604.8000
 Red. masses --      3.2613                 7.5457                 2.5249
 Frc consts  --      0.4465                 1.2199                 0.5442
 IR Inten    --      0.4914                33.9057                 3.4410

                     13                     14                     15
                      A                      A                      A
 Frequencies --    627.8442               643.6969               755.9232
 Red. masses --      4.2593                 8.1222                 5.1827
 Frc consts  --      0.9892                 1.9828                 1.7449
 IR Inten    --      3.7827                 2.2105                 4.9568

                     16                     17                     18
                      A                      A                      A
 Frequencies --    801.1686               845.6216               963.5799
 Red. masses --      6.8960                 1.3640                 2.2904
 Frc consts  --      2.6079                 0.5747                 1.2529
 IR Inten    --     30.6299                23.3847                45.3639

                     19                     20                     21
                      A                      A                      A
 Frequencies --    979.2413               991.0080              1035.0308
 Red. masses --      1.3490                 1.3684                 3.2298
 Frc consts  --      0.7621                 0.7918                 2.0386
 IR Inten    --      3.3200                 0.3871                16.0708

                     22                     23                     24
                      A                      A                      A
 Frequencies --   1049.0472              1104.4611              1137.8697
 Red. masses --      1.8936                 2.8034                 2.5911
 Frc consts  --      1.2278                 2.0148                 1.9766
 IR Inten    --      1.1731                 3.6026               174.5380

                     25                     26                     27
                      A                      A                      A
 Frequencies --   1175.9105              1290.4627              1313.0935
 Red. masses --      1.4712                 2.9416                 1.6535
 Frc consts  --      1.1986                 2.8862                 1.6798
 IR Inten    --     14.6651               216.0673                 4.2087

                     28                     29                     30
                      A                      A                      A
 Frequencies --   1320.7544              1391.6881              1420.7356
 Red. masses --      5.1709                 1.4563                 2.7331
 Frc consts  --      5.3145                 1.6619                 3.2503
 IR Inten    --      0.4450                35.2370                27.0070

                     31                     32                     33
                      A                      A                      A
 Frequencies --   1481.4646              1491.6055              1496.2145
 Red. masses --      1.0586                 1.0475                 2.4912
 Frc consts  --      1.3689                 1.3731                 3.2858
 IR Inten    --     10.0912                10.2941                55.5300

                     34                     35                     36
                      A                      A                      A
 Frequencies --   1607.9768              1637.1675              1786.1291
 Red. masses --      6.8428                 5.6443                10.9064
 Frc consts  --     10.4243                 8.9134                20.5001
 IR Inten    --     55.4567               168.8389               162.7550

                     37                     38                     39
                      A                      A                      A
 Frequencies --   3048.7555              3111.6190              3173.6665
 Red. masses --      1.0382                 1.0999                 1.1015
 Frc consts  --      5.6859                 6.2745                 6.5369
 IR Inten    --      2.4768                 7.9394                 8.2454

                     40                     41                     42
                      A                      A                      A
 Frequencies --   3210.1595              3210.8892              3236.4264
 Red. masses --      1.0903                 1.0905                 1.0953
 Frc consts  --      6.6200                 6.6240                 6.7598
 IR Inten    --      2.2961                 2.7552                 1.1806

 - Thermochemistry -
 -------------------
 Temperature   298.150 Kelvin.  Pressure   1.00000 Atm.
 Atom     1 has atomic number  6 and mass  12.00000

 Molecular mass:   155.01379 amu.
 Principal axes and moments of inertia in atomic units:
                           1         2         3
     Eigenvalues --   480.474533197.901383667.15422
           X            0.99988  -0.01537  -0.00000
           Y            0.01537   0.99988   0.00001
           Z            0.00000  -0.00001   1.00000
 This molecule is an asymmetric top.
 Rotational symmetry number  1.
 Warning -- assumption of classical behavior for rotation
           may cause significant error
 Rotational temperatures (Kelvin)      0.18027     0.02708     0.02362
 Rotational constants (GHZ):           3.75616     0.56435     0.49214
 Zero-point vibrational energy     306204.9 (Joules/Mol)
                                   73.18473 (Kcal/Mol)
 Warning -- explicit consideration of  12 degrees of freedom as
           vibrations may cause significant error
 Vibrational temperatures:     88.86   121.41   240.69   249.06   360.69
          (Kelvin)            443.92   465.99   607.72   649.65   693.57
                              753.69   870.17   903.33   926.14  1087.60
                             1152.70  1216.66  1386.38  1408.91  1425.84
                             1489.18  1509.34  1589.07  1637.14  1691.87
                             1856.69  1889.25  1900.27  2002.33  2044.12
                             2131.50  2146.09  2152.72  2313.52  2355.52
                             2569.84  4386.48  4476.93  4566.20  4618.70
                             4619.75  4656.50

 Zero-point correction=                           0.116627 (Hartree/Particle)
 Thermal correction to Energy=                    0.125529
 Thermal correction to Enthalpy=                  0.126473
 Thermal correction to Gibbs Free Energy=         0.081714
 Sum of electronic and zero-point Energies=           -860.451612
 Sum of electronic and thermal Energies=              -860.442711
 Sum of electronic and thermal Enthalpies=            -860.441767
 Sum of electronic and thermal Free Energies=         -860.486526

                     E (Thermal)             CV                S
                      KCal/Mol        Cal/Mol-Kelvin    Cal/Mol-Kelvin
 Total                   78.770             32.472             94.203
 Electronic               0.000              0.000              0.000
 Translational            0.889              2.981             41.025
 Rotational               0.889              2.981             30.111
 Vibrational             76.993             26.510             23.066
 Vibration     1          0.597              1.973              4.400
 Vibration     2          0.601              1.960              3.786
 Vibration     3          0.624              1.883              2.466
 Vibration     4          0.627              1.876              2.401
 Vibration     5          0.663              1.762              1.726
 Vibration     6          0.698              1.657              1.370
 Vibration     7          0.708              1.628              1.290
 Vibration     8          0.785              1.422              0.884
 Vibration     9          0.810              1.358              0.791
 Vibration    10          0.838              1.290              0.705
 Vibration    11          0.879              1.197              0.601
 Vibration    12          0.963              1.022              0.441

 Optimization completed.
    -- Stationary point found.
 Normal termination of Gaussian 16 at Tue Sep 17 09:53:17 2024.

 ----------------------------------------------------------------------
 #p M062X/def2tzvp geom=check guess=read scf(xqc,tight) integral(grid=u
 ltrafine) scrf(SMD, solvent=1,4-Dioxane) polar prop=efg volume
 ----------------------------------------------------------------------

 ---
 spe
 ---
 Structure from the checkpoint file:  "smiles_00113_conf_1.chk"
 Charge =  0 Multiplicity = 1

 SCF Done:  E(RM062X) =  -860.524022119     A.U. after   12 cycles

  Exact polarizability:     171.684       3.399     115.424       0.002      -0.002      64.967
 Approx polarizability:     169.663       8.023     139.758       0.001      -0.005      80.903

 Normal termination of Gaussian 16 at Tue Sep 17 10:17:55 2024.
 Gaussian 16:  ES64L-G16RevC.02  7-Dec-2021

 ----------------------------------------------------------------------
 #p M062X/def2tzvp geom=check guess=read scf(xqc,tight) integral(grid=u
 ltrafine) scrf(SMD, solvent=1,4-Dioxane) nmr=giao
 ----------------------------------------------------------------------

 ---
 spe
 ---
 Structure from the checkpoint file:  "smiles_00113_conf_1.chk"
 Charge =  0 Multiplicity = 1

                         Standard orientation:
 ---------------------------------------------------------------------
 Center     Atomic      Atomic             Coordinates (Angstroms)
 Number     Number       Type             X           Y           Z
 ---------------------------------------------------------------------
      1          6           0       -3.397305    1.063644    0.000229
      2          6           0       -2.547432   -0.191610   -0.000356
      3          8           0       -3.056537   -1.300698    0.000234
      4          6           0       -1.058567   -0.042520   -0.000214
      5          6           0       -0.398846    1.193468   -0.000165
      6          6           0        0.989791    1.228326   -0.000071
      7          6           0        1.659409    0.002055   -0.000012
      8         17           0        3.415389    0.006731    0.000123
      9          7           0        1.070312   -1.183209   -0.000041
     10          6           0       -0.265926   -1.198245   -0.000135
     11          1           0       -3.187070    1.677212    0.883119
     12          1           0       -3.187823    1.677464   -0.882662
     13          1           0       -4.448068    0.775275    0.000637
     14          1           0       -0.957333    2.123287   -0.000211
     15          1           0        1.541049    2.160074   -0.000039
     16          1           0       -0.748996   -2.170384   -0.000174
 ---------------------------------------------------------------------

 SCF Done:  E(RM062X) =  -860.524022119     A.U. after    1 cycles

      1  C    Isotropic =   155.5260   Anisotropy =    49.5823

      2  C    Isotropic =   -39.8425   Anisotropy =   207.7048

      3  O    Isotropic =  -413.8540   Anisotropy =  1160.4270

      4  C    Isotropic =    34.6119   Anisotropy =   199.6640

      5  C    Isotropic =    22.4728   Anisotropy =   231.7572

      6  C    Isotropic =    40.9255   Anisotropy =   177.6557

      7  C    Isotropic =    -1.4419   Anisotropy =   130.1544

      8  Cl   Isotropic =   586.1815   Anisotropy =   615.1177

      9  N    Isotropic =  -129.6814   Anisotropy =   581.3821

     10  C    Isotropic =     9.5799   Anisotropy =   210.4963

     11  H    Isotropic =    29.0532   Anisotropy =     4.3445

     12  H    Isotropic =    29.0530   Anisotropy =     4.3442

     13  H    Isotropic =    29.4258   Anisotropy =     6.3104

     14  H    Isotropic =    22.8041   Anisotropy =     9.1674

     15  H    Isotropic =    23.6707   Anisotropy =     9.4561

     16  H    Isotropic =    21.7282   Anisotropy =     7.9386

 The electronic state is 1-A.
 Alpha  occ. eigenvalues -- -102.65436 -19.62866 -14.77518 -10.65494 -10.64636
 Alpha  occ. eigenvalues --  -10.60038 -10.58624 -10.57513 -10.57322 -10.54550
 Alpha  occ. eigenvalues --   -9.81709  -7.53897  -7.53403  -7.53368  -1.17583
 Alpha  occ. eigenvalues --   -1.09113  -0.96433  -0.93639  -0.87252  -0.83940
 Alpha  occ. eigenvalues --   -0.74388  -0.73459  -0.65514  -0.60517  -0.58528
 Alpha  occ. eigenvalues --   -0.55350  -0.53086  -0.53078  -0.51363  -0.50638
 Alpha  occ. eigenvalues --   -0.49254  -0.47037  -0.45246  -0.44374  -0.41171
 Alpha  occ. eigenvalues --   -0.39089  -0.36956  -0.36429  -0.33473  -0.32235
 Alpha virt. eigenvalues --   -0.04454  -0.01602   0.05528   0.05990   0.07607
 Alpha virt. eigenvalues --    0.10497   0.11529   0.13146   0.13950   0.14140
 Alpha virt. eigenvalues --    0.14391   0.16811   0.17184   0.19077   0.20351

 Mulliken charges:
               1
     1  C   -0.534011
     2  C    0.289508
     3  O   -0.329541
     4  C    0.009311
     5  C   -0.132186
     6  C   -0.216877
     7  C    0.165881
     8  Cl  -0.076878
     9  N   -0.219066
    10  C   -0.056591
    11  H    0.182768
    12  H    0.182750
    13  H    0.171929
    14  H    0.194654
    15  H    0.181299
    16  H    0.187050
 Sum of Mulliken charges =  -0.00000

 Dipole moment (field-independent basis, Debye):
    X=             -1.4507    Y=              5.0140    Z=             -0.0007  Tot=              5.2197
 Quadrupole moment (field-independent basis, Debye-Ang):
   XX=            -71.6104   YY=            -63.2420   ZZ=            -65.2776
   XY=             -5.9345   XZ=              0.0017   YZ=              0.0011

 Normal termination of Gaussian 16 at Tue Sep 17 10:26:58 2024.
