 Gaussian 16, Revision C.02,

 ----------------------------------------------------------------------
 #p B3LYP/6-31G(d,p) EmpiricalDispersion=GD3BJ opt freq scf(xqc,tight)
 integral(grid=ultrafine)
 ----------------------------------------------------------------------

 ----------------------------------
 opt-freq conformers_unique/conf_ae
 ----------------------------------
 Symbolic Z-matrix:
 Charge =  0 Multiplicity = 1

 SCF Done:  E(RB3LYP) =  -3117.96606579     A.U. after   14 cycles
 SCF Done:  E(RB3LYP) =  -3117.96807833     A.U. after   10 cycles
 SCF Done:  E(RB3LYP) =  -3117.96822174     A.U. after    9 cycles
 SCF Done:  E(RB3LYP) =  -3117.96837726     A.U. after   10 cycles
 SCF Done:  E(RB3LYP) =  -3117.92485550     A.U. after   12 cycles
 SCF Done:  E(RB3LYP) =  -3117.96856497     A.U. after   12 cycles
 SCF Done:  E(RB3LYP) =  -3117.96908647     A.U. after   11 cycles
 SCF Done:  E(RB3LYP) =  -3117.96917634     A.U. after   10 cycles
 SCF Done:  E(RB3LYP) =  -3117.96926521     A.U. after   11 cycles
 SCF Done:  E(RB3LYP) =  -3117.96929090     A.U. after    9 cycles
 SCF Done:  E(RB3LYP) =  -3117.96929251     A.U. after    7 cycles
 SCF Done:  E(RB3LYP) =  -3117.96929310     A.U. after    7 cycles
 SCF Done:  E(RB3LYP) =  -3117.96929312     A.U. after    6 cycles
 SCF Done:  E(RB3LYP) =  -3117.96929311     A.U. after    6 cycles
 Optimization completed.
    -- Stationary point found.
 Normal termination of Gaussian 16 at Tue Sep 17 09:55:15 2024.

 ----------------------------------------------------------------------
 #P Geom=AllCheck Guess=TCheck SCRF=Check GenChk RB3LYP/6-31G(d,p) Freq
 ----------------------------------------------------------------------

 Structure from the checkpoint file:  "smiles_00109_conf_4.chk"
 ----------------------------------
 opt-freq conformers_unique/conf_ae
 ----------------------------------
 Charge =  0 Multiplicity = 1

 SCF Done:  E(RB3LYP) =  -3117.96929311     A.U. after    1 cycles

 The electronic state is 1-A.
 Alpha  occ. eigenvalues -- -482.90274 -61.86440 -56.38569 -56.38166 -56.38153
 Alpha  occ. eigenvalues --  -10.23922 -10.20686 -10.20655 -10.19935 -10.19890
 Alpha  occ. eigenvalues --  -10.19177 -10.19115 -10.18521 -10.17773 -10.17692
 Alpha  occ. eigenvalues --  -10.17691 -10.17655 -10.17654 -10.17626  -8.57569
 Alpha  occ. eigenvalues --   -6.52949  -6.51697  -6.51674  -2.64523  -2.64166
 Alpha  occ. eigenvalues --   -2.64149  -2.63149  -2.63149  -0.87487  -0.83033
 Alpha  occ. eigenvalues --   -0.82017  -0.77729  -0.73653  -0.71788  -0.68806
 Alpha  occ. eigenvalues --   -0.68704  -0.68671  -0.68483  -0.62200  -0.60238
 Alpha  occ. eigenvalues --   -0.55047  -0.52551  -0.51368  -0.47399  -0.45944
 Alpha  occ. eigenvalues --   -0.45714  -0.44234  -0.44009  -0.43227  -0.42208
 Alpha  occ. eigenvalues --   -0.41074  -0.40091  -0.39311  -0.38845  -0.37993
 Alpha  occ. eigenvalues --   -0.37691  -0.37261  -0.36942  -0.36704  -0.36584
 Alpha  occ. eigenvalues --   -0.34158  -0.33607  -0.33406  -0.33115  -0.31556
 Alpha  occ. eigenvalues --   -0.31384  -0.29602  -0.27855  -0.24354  -0.23253
 Alpha virt. eigenvalues --   -0.00750  -0.00387   0.01421   0.07393   0.08873
 Alpha virt. eigenvalues --    0.11706   0.12201   0.13195   0.13229   0.13335
 Alpha virt. eigenvalues --    0.13908   0.14082   0.15370   0.15884   0.16363

 Mulliken charges:
               1
     1  C   -0.294525
     2  C   -0.032255
     3  C   -0.294523
     4  C   -0.311616
     5  C    0.143914
     6  C   -0.137141
     7  C    0.040393
     8  Br  -0.144159
     9  C   -0.128799
    10  C    0.143951
    11  C   -0.033550
    12  C   -0.310204
    13  C   -0.294823
    14  C   -0.294833
    15  C   -0.164750
    16  H    0.098276
    17  H    0.106987
    18  H    0.098808
    19  H    0.098275
    20  H    0.098806
    21  H    0.106988
    22  H    0.106184
    23  H    0.106185
    24  H    0.097620
    25  H    0.099230
    26  H    0.098442
    27  H    0.103581
    28  H    0.098010
    29  H    0.103584
    30  H    0.102355
    31  H    0.106159
    32  H    0.098257
    33  H    0.102352
    34  H    0.098258
    35  H    0.106162
    36  H    0.078404
 Sum of Mulliken charges =  -0.00000

 Dipole moment (field-independent basis, Debye):
    X=             -2.2593    Y=              0.5876    Z=             -0.0000  Tot=              2.3344
 Quadrupole moment (field-independent basis, Debye-Ang):
   XX=           -106.6373   YY=            -99.3151   ZZ=           -107.9047
   XY=              1.9708   XZ=             -0.0001   YZ=              0.0001

  Exact polarizability:     193.082       0.459     190.649      -0.000       0.000     112.787
 Approx polarizability:     292.242      -4.197     269.425      -0.001       0.001     168.070

                      1                      2                      3
                      A                      A                      A
 Frequencies --     35.3009                36.9151                82.1868
 Red. masses --      2.8239                 2.8539                 3.7563
 Frc consts  --      0.0021                 0.0023                 0.0149
 IR Inten    --      0.0264                 0.0051                 0.1483

                      4                      5                      6
                      A                      A                      A
 Frequencies --    125.6412               128.8065               139.1247
 Red. masses --      5.6985                 3.9484                 3.0242
 Frc consts  --      0.0530                 0.0386                 0.0345
 IR Inten    --      0.0747                 0.1962                 0.0038

                      7                      8                      9
                      A                      A                      A
 Frequencies --    187.9540               233.3443               234.4699
 Red. masses --      4.1006                 1.0762                 1.0611
 Frc consts  --      0.0853                 0.0345                 0.0344
 IR Inten    --      0.0034                 0.0004                 0.0106

                     10                     11                     12
                      A                      A                      A
 Frequencies --    245.3661               265.2807               266.8881
 Red. masses --      4.3471                 1.3081                 1.3458
 Frc consts  --      0.1542                 0.0542                 0.0565
 IR Inten    --      0.9096                 0.0129                 0.1866

                     13                     14                     15
                      A                      A                      A
 Frequencies --    284.8873               296.2958               316.9689
 Red. masses --      1.7217                 1.9046                 2.1741
 Frc consts  --      0.0823                 0.0985                 0.1287
 IR Inten    --      0.3368                 0.2069                 0.0008

                     16                     17                     18
                      A                      A                      A
 Frequencies --    328.5455               339.0942               343.3317
 Red. masses --      1.4016                 1.1844                 1.5138
 Frc consts  --      0.0891                 0.0802                 0.1051
 IR Inten    --      0.3459                 0.0586                 0.3479

                     19                     20                     21
                      A                      A                      A
 Frequencies --    362.2625               372.3381               386.8653
 Red. masses --      3.1416                 2.5940                 3.1073
 Frc consts  --      0.2429                 0.2119                 0.2740
 IR Inten    --      0.4622                 0.0434                 0.0689

                     22                     23                     24
                      A                      A                      A
 Frequencies --    391.4192               405.8349               464.0656
 Red. masses --      2.3398                 2.5796                 3.0430
 Frc consts  --      0.2112                 0.2503                 0.3861
 IR Inten    --      0.0000                 0.6368                 0.1507

                     25                     26                     27
                      A                      A                      A
 Frequencies --    523.7568               540.3600               552.6734
 Red. masses --      3.1633                 3.2276                 2.7060
 Frc consts  --      0.5113                 0.5553                 0.4870
 IR Inten    --      0.0585                 0.6458                 1.8787

                     28                     29                     30
                      A                      A                      A
 Frequencies --    576.1699               654.1729               729.3052
 Red. masses --      5.0137                 4.2936                 2.1703
 Frc consts  --      0.9806                 1.0826                 0.6801
 IR Inten    --      0.0094                 0.0282                 9.4655

                     31                     32                     33
                      A                      A                      A
 Frequencies --    761.0660               773.4709               851.4513
 Red. masses --      6.6015                 4.3292                 2.7689
 Frc consts  --      2.2529                 1.5260                 1.1827
 IR Inten    --     35.0571                 0.1203                24.8848

                     34                     35                     36
                      A                      A                      A
 Frequencies --    898.0160               913.2997               913.7620
 Red. masses --      1.6747                 1.4250                 2.6485
 Frc consts  --      0.7957                 0.7003                 1.3029
 IR Inten    --     18.1693                 0.0267                11.6588

                     37                     38                     39
                      A                      A                      A
 Frequencies --    921.5342               938.4056               939.1742
 Red. masses --      1.3935                 1.7045                 1.6695
 Frc consts  --      0.6972                 0.8843                 0.8676
 IR Inten    --      0.0010                 0.0000                 3.2682

                     40                     41                     42
                      A                      A                      A
 Frequencies --    948.7779               949.8063               967.8708
 Red. masses --      1.6723                 1.6803                 1.1978
 Frc consts  --      0.8870                 0.8931                 0.6611
 IR Inten    --      1.0817                 3.1469                 0.0701

                     43                     44                     45
                      A                      A                      A
 Frequencies --    968.2287              1018.6953              1049.3978
 Red. masses --      1.1977                 5.6124                 1.4214
 Frc consts  --      0.6616                 3.4315                 0.9223
 IR Inten    --      0.2425                 3.4998                 1.0411

                     46                     47                     48
                      A                      A                      A
 Frequencies --   1053.3142              1055.9817              1057.2617
 Red. masses --      1.4085                 1.3988                 1.3943
 Frc consts  --      0.9207                 0.9190                 0.9183
 IR Inten    --      0.1431                 0.0026                 0.0004

                     49                     50                     51
                      A                      A                      A
 Frequencies --   1147.6028              1167.1390              1171.6991
 Red. masses --      2.0330                 1.9083                 1.8245
 Frc consts  --      1.5775                 1.5316                 1.4758
 IR Inten    --      5.8201                 1.2603                 0.0377

                     52                     53                     54
                      A                      A                      A
 Frequencies --   1236.6611              1237.5405              1242.6276
 Red. masses --      2.7255                 2.7447                 2.5146
 Frc consts  --      2.4558                 2.4767                 2.2877
 IR Inten    --      5.7514                 0.3802                 1.8691

                     55                     56                     57
                      A                      A                      A
 Frequencies --   1243.1247              1281.1203              1309.9937
 Red. masses --      2.5587                 2.4455                 2.9384
 Frc consts  --      2.3297                 2.3648                 2.9710
 IR Inten    --      1.1734                48.6990                22.3660

                     58                     59                     60
                      A                      A                      A
 Frequencies --   1319.8441              1358.9570              1410.9555
 Red. masses --      1.7743                 3.2359                 1.2540
 Frc consts  --      1.8211                 3.5209                 1.4709
 IR Inten    --     14.9622                 2.9171                 6.3667

                     61                     62                     63
                      A                      A                      A
 Frequencies --   1412.5320              1413.6490              1413.9391
 Red. masses --      1.2159                 1.2153                 1.2465
 Frc consts  --      1.4294                 1.4309                 1.4682
 IR Inten    --      3.2731                 5.3395                 2.6853

                     64                     65                     66
                      A                      A                      A
 Frequencies --   1444.6981              1445.3189              1463.9078
 Red. masses --      1.2204                 1.2206                 2.8802
 Frc consts  --      1.5008                 1.5022                 3.6366
 IR Inten    --      3.9686                 0.3982                27.6692

                     67                     68                     69
                      A                      A                      A
 Frequencies --   1484.5180              1496.0774              1496.7087
 Red. masses --      2.3602                 1.0489                 1.0489
 Frc consts  --      3.0645                 1.3832                 1.3844
 IR Inten    --     10.0911                 0.0037                 0.0216

                     70                     71                     72
                      A                      A                      A
 Frequencies --   1500.3085              1500.5963              1505.3651
 Red. masses --      1.0446                 1.0448                 1.0611
 Frc consts  --      1.3854                 1.3861                 1.4167
 IR Inten    --      0.0002                 0.0935                 1.2415

                     73                     74                     75
                      A                      A                      A
 Frequencies --   1506.8569              1519.2533              1520.3655
 Red. masses --      1.1135                 1.0613                 1.0972
 Frc consts  --      1.4897                 1.4433                 1.4942
 IR Inten    --      2.6933                 2.3082                 5.8318

                     76                     77                     78
                      A                      A                      A
 Frequencies --   1521.9765              1522.7346              1536.0432
 Red. masses --      1.0505                 1.0506                 1.0700
 Frc consts  --      1.4337                 1.4352                 1.4874
 IR Inten    --      9.6207                 0.3242                14.3335

                     79                     80                     81
                      A                      A                      A
 Frequencies --   1536.3243              1620.4439              1653.4859
 Red. masses --      1.0695                 5.7411                 5.9392
 Frc consts  --      1.4872                 8.8820                 9.5670
 IR Inten    --      3.2657                79.5371                40.7241

                     82                     83                     84
                      A                      A                      A
 Frequencies --   3041.1976              3041.5079              3041.7118
 Red. masses --      1.0349                 1.0350                 1.0348
 Frc consts  --      5.6392                 5.6414                 5.6411
 IR Inten    --     23.6763                20.0758                22.5362

                     85                     86                     87
                      A                      A                      A
 Frequencies --   3041.8395              3048.7962              3049.0064
 Red. masses --      1.0352                 1.0363                 1.0363
 Frc consts  --      5.6433                 5.6756                 5.6759
 IR Inten    --     30.7509                32.6566                13.5391

                     88                     89                     90
                      A                      A                      A
 Frequencies --   3112.4100              3112.5675              3113.0301
 Red. masses --      1.1023                 1.1025                 1.1025
 Frc consts  --      6.2914                 6.2928                 6.2952
 IR Inten    --      1.2236                 4.0417                 2.0787

                     91                     92                     93
                      A                      A                      A
 Frequencies --   3113.2485              3117.1671              3118.5208
 Red. masses --      1.1025                 1.1028                 1.1030
 Frc consts  --      6.2960                 6.3134                 6.3202
 IR Inten    --      6.0006                24.1338                21.5379

                     94                     95                     96
                      A                      A                      A
 Frequencies --   3120.3512              3120.8266              3124.5223
 Red. masses --      1.1017                 1.1015                 1.1024
 Frc consts  --      6.3198                 6.3210                 6.3409
 IR Inten    --    133.7196                48.9370                18.4664

                     97                     98                     99
                      A                      A                      A
 Frequencies --   3125.3165              3126.7587              3127.9672
 Red. masses --      1.1023                 1.1017                 1.1016
 Frc consts  --      6.3439                 6.3463                 6.3501
 IR Inten    --     15.7110                37.7768                44.4310

                    100                    101                    102
                      A                      A                      A
 Frequencies --   3220.1156              3229.8238              3245.2849
 Red. masses --      1.0905                 1.0879                 1.0903
 Frc consts  --      6.6625                 6.6868                 6.7658
 IR Inten    --      2.5870                 7.3437                 0.3692

 - Thermochemistry -
 -------------------
 Temperature   298.150 Kelvin.  Pressure   1.00000 Atm.
 Atom     1 has atomic number  6 and mass  12.00000

 Molecular mass:   268.08266 amu.
 Principal axes and moments of inertia in atomic units:
                           1         2         3
     Eigenvalues --  4344.453075142.388788688.57912
           X            0.97872   0.20522   0.00000
           Y           -0.20522   0.97872  -0.00000
           Z           -0.00000   0.00000   1.00000
 This molecule is an asymmetric top.
 Rotational symmetry number  1.
 Warning -- assumption of classical behavior for rotation
           may cause significant error
 Rotational temperatures (Kelvin)      0.01994     0.01684     0.00997
 Rotational constants (GHZ):           0.41541     0.35095     0.20771
 Zero-point vibrational energy     830588.0 (Joules/Mol)
                                  198.51531 (Kcal/Mol)
 Warning -- explicit consideration of  28 degrees of freedom as
           vibrations may cause significant error
 Vibrational temperatures:     50.79    53.11   118.25   180.77   185.32
          (Kelvin)            200.17   270.42   335.73   337.35   353.03
                              381.68   383.99   409.89   426.30   456.05
                              472.70   487.88   493.98   521.21   535.71
                              556.61   563.16   583.91   667.69   753.57
                              777.46   795.17   828.98   941.21  1049.31
                             1095.00  1112.85  1225.05  1292.04  1314.03
                             1314.70  1325.88  1350.16  1351.26  1365.08
                             1366.56  1392.55  1393.07  1465.68  1509.85
                             1515.48  1519.32  1521.16  1651.14  1679.25
                             1685.81  1779.28  1780.54  1787.86  1788.58
                             1843.25  1884.79  1898.96  1955.24  2030.05
                             2032.32  2033.93  2034.34  2078.60  2079.49
                             2106.24  2135.89  2152.52  2153.43  2158.61
                             2159.02  2165.88  2168.03  2185.87  2187.47
                             2189.78  2190.88  2210.02  2210.43  2331.46
                             2379.00  4375.61  4376.05  4376.34  4376.53
                             4386.54  4386.84  4478.06  4478.29  4478.96
                             4479.27  4484.91  4486.86  4489.49  4490.17
                             4495.49  4496.63  4498.71  4500.45  4633.03
                             4647.00  4669.24

 Zero-point correction=                           0.316354 (Hartree/Particle)
 Thermal correction to Energy=                    0.333145
 Thermal correction to Enthalpy=                  0.334089
 Thermal correction to Gibbs Free Energy=         0.272150
 Sum of electronic and zero-point Energies=          -3117.652939
 Sum of electronic and thermal Energies=             -3117.636148
 Sum of electronic and thermal Enthalpies=           -3117.635204
 Sum of electronic and thermal Free Energies=        -3117.697143

                     E (Thermal)             CV                S
                      KCal/Mol        Cal/Mol-Kelvin    Cal/Mol-Kelvin
 Total                  209.052             65.119            130.362
 Electronic               0.000              0.000              0.000
 Translational            0.889              2.981             42.657
 Rotational               0.889              2.981             33.628
 Vibrational            207.274             59.157             54.077
 Vibration     1          0.594              1.982              5.507
 Vibration     2          0.594              1.982              5.418
 Vibration     3          0.600              1.961              3.838
 Vibration     4          0.611              1.927              3.012
 Vibration     5          0.611              1.924              2.964
 Vibration     6          0.615              1.914              2.816
 Vibration     7          0.633              1.856              2.248
 Vibration     8          0.654              1.790              1.853
 Vibration     9          0.654              1.788              1.844
 Vibration    10          0.660              1.770              1.764
 Vibration    11          0.671              1.737              1.627
 Vibration    12          0.672              1.734              1.616
 Vibration    13          0.683              1.702              1.504
 Vibration    14          0.690              1.681              1.438
 Vibration    15          0.704              1.641              1.326
 Vibration    16          0.712              1.618              1.267
 Vibration    17          0.719              1.597              1.216
 Vibration    18          0.722              1.589              1.197
 Vibration    19          0.736              1.550              1.112
 Vibration    20          0.744              1.529              1.070
 Vibration    21          0.755              1.498              1.012
 Vibration    22          0.759              1.489              0.995
 Vibration    23          0.771              1.458              0.941
 Vibration    24          0.822              1.330              0.754
 Vibration    25          0.879              1.197              0.601
 Vibration    26          0.895              1.161              0.565
 Vibration    27          0.908              1.134              0.539
 Vibration    28          0.933              1.083              0.493

 Optimization completed.
    -- Stationary point found.
 Normal termination of Gaussian 16 at Tue Sep 17 10:03:00 2024.
 Gaussian 16:  ES64L-G16RevC.02  7-Dec-2021

 ----------------------------------------------------------------------
 #p M062X/def2tzvp geom=check guess=read scf(xqc,tight) integral(grid=u
 ltrafine) scrf(SMD, solvent=1,4-Dioxane) polar prop=efg volume
 ----------------------------------------------------------------------

 ---
 spe
 ---
 Structure from the checkpoint file:  "smiles_00109_conf_4.chk"
 Charge =  0 Multiplicity = 1

                         Standard orientation:
 ---------------------------------------------------------------------
 Center     Atomic      Atomic             Coordinates (Angstroms)
 Number     Number       Type             X           Y           Z
 ---------------------------------------------------------------------
      1          6           0       -2.961801   -1.945387    1.260857
      2          6           0       -2.086503   -2.113093    0.000008
      3          6           0       -2.961709   -1.945375   -1.260917
      4          6           0       -1.508096   -3.537129    0.000016
      5          6           0       -0.989049   -1.039309    0.000033
      6          6           0        0.368824   -1.361809    0.000008
      7          6           0        1.312304   -0.336081    0.000025
      8         35           0        3.173243   -0.796798   -0.000000
      9          6           0        0.950877    1.000906    0.000058
     10          6           0       -0.409818    1.349013    0.000076
     11          6           0       -0.801337    2.833726    0.000005
     12          6           0       -2.325251    3.034758    0.000275
     13          6           0       -0.223171    3.511553   -1.260905
     14          6           0       -0.222711    3.511922    1.260492
     15          6           0       -1.350837    0.318603    0.000059
     16          1           0       -3.752907   -2.702666    1.277129
     17          1           0       -2.360919   -2.058378    2.168453
     18          1           0       -3.439145   -0.962256    1.295316
     19          1           0       -3.752800   -2.702670   -1.277274
     20          1           0       -3.439086   -0.962256   -1.295361
     21          1           0       -2.360749   -2.058317   -2.168462
     22          1           0       -0.895725   -3.725764    0.887219
     23          1           0       -0.895737   -3.725788   -0.887186
     24          1           0       -2.324730   -4.265254    0.000038
     25          1           0        0.707457   -2.388274   -0.000031
     26          1           0        1.722151    1.761053    0.000049
     27          1           0       -2.792348    2.596102   -0.887009
     28          1           0       -2.553749    4.104736    0.000316
     29          1           0       -2.792023    2.596082    0.887722
     30          1           0        0.867249    3.439682   -1.295736
     31          1           0       -0.618670    3.045277   -2.168537
     32          1           0       -0.489571    4.573769   -1.276994
     33          1           0        0.867725    3.440160    1.294947
     34          1           0       -0.489170    4.574125    1.276384
     35          1           0       -0.617832    3.045890    2.168416
     36          1           0       -2.403262    0.568886    0.000065
 ---------------------------------------------------------------------

 SCF Done:  E(RM062X) =  -3120.29715699     A.U. after   11 cycles
