 Gaussian 16, Revision C.02,

 ----------------------------------------------------------------------
 #p B3LYP/6-31G(d,p) EmpiricalDispersion=GD3BJ opt freq scf(xqc,tight)
 integral(grid=ultrafine)
 ----------------------------------------------------------------------

 ----------------------------------
 opt-freq conformers_unique/conf_aa
 ----------------------------------
 Symbolic Z-matrix:
 Charge =  0 Multiplicity = 1

 SCF Done:  E(RB3LYP) =  -3190.41164013     A.U. after   15 cycles
 SCF Done:  E(RB3LYP) =  -3190.41354242     A.U. after   12 cycles
 SCF Done:  E(RB3LYP) =  -3190.41393624     A.U. after   10 cycles
 SCF Done:  E(RB3LYP) =  -3190.41398810     A.U. after    9 cycles
 SCF Done:  E(RB3LYP) =  -3190.41399023     A.U. after    8 cycles
 Optimization completed.
    -- Stationary point found.
 Normal termination of Gaussian 16 at Tue Sep 17 09:50:46 2024.

 ----------------------------------------------------------------------
 #P Geom=AllCheck Guess=TCheck SCRF=Check GenChk RB3LYP/6-31G(d,p) Freq
 ----------------------------------------------------------------------

 Structure from the checkpoint file:  "smiles_00016_conf_0.chk"
 ----------------------------------
 opt-freq conformers_unique/conf_aa
 ----------------------------------
 Charge =  0 Multiplicity = 1

 SCF Done:  E(RB3LYP) =  -3190.41399023     A.U. after    1 cycles

                      1                      2                      3
                      A                      A                      A
 Frequencies --     48.0436               117.0942               168.1515
 Red. masses --     15.4826                10.5934                13.4428
 Frc consts  --      0.0211                 0.0856                 0.2239
 IR Inten    --      0.0796                 0.1540                 0.2211

                      4                      5                      6
                      A                      A                      A
 Frequencies --    207.1885               258.2135               319.9406
 Red. masses --      6.3236                21.0486                 8.3461
 Frc consts  --      0.1599                 0.8269                 0.5034
 IR Inten    --      0.0607                 0.4253                 0.0168

                      7                      8                      9
                      A                      A                      A
 Frequencies --    360.1705               399.4819               421.4329
 Red. masses --      6.1207                14.1383                11.7581
 Frc consts  --      0.4678                 1.3294                 1.2304
 IR Inten    --      0.2974                 0.0062                18.7275

                     10                     11                     12
                      A                      A                      A
 Frequencies --    428.6181               592.2859               593.1617
 Red. masses --      3.0609                 9.5643                 4.7905
 Frc consts  --      0.3313                 1.9768                 0.9931
 IR Inten    --      3.1116                 0.4907                 2.6895

                     13                     14                     15
                      A                      A                      A
 Frequencies --    601.6875               630.4246               685.6731
 Red. masses --     13.9647                 8.9993                 8.7005
 Frc consts  --      2.9787                 2.1073                 2.4101
 IR Inten    --      3.4328                 5.7121                10.6729

                     16                     17                     18
                      A                      A                      A
 Frequencies --    712.4040               715.0307               823.6141
 Red. masses --     12.0962                 5.3610                 1.3612
 Frc consts  --      3.6170                 1.6149                 0.5440
 IR Inten    --     17.3623                 0.0879                29.3087

                     19                     20                     21
                      A                      A                      A
 Frequencies --    843.5150               881.8370               904.3750
 Red. masses --      8.0364                 1.3705                 9.3392
 Frc consts  --      3.3690                 0.6279                 4.5005
 IR Inten    --      0.0391                16.2016                 1.2444

                     22                     23                     24
                      A                      A                      A
 Frequencies --    927.0606               946.1293              1040.8765
 Red. masses --      8.3454                 1.3118                 9.2573
 Frc consts  --      4.2258                 0.6918                 5.9093
 IR Inten    --     75.4117                 0.1742                50.9314

                     25                     26                     27
                      A                      A                      A
 Frequencies --   1068.5259              1150.8001              1251.5908
 Red. masses --      1.9950                 1.3029                13.0086
 Frc consts  --      1.3421                 1.0166                12.0062
 IR Inten    --     12.0383                15.8423               304.3278

                     28                     29                     30
                      A                      A                      A
 Frequencies --   1260.5662              1276.5227              1278.7099
 Red. masses --      7.0885                 2.3720                 4.4376
 Frc consts  --      6.6365                 2.2773                 4.2751
 IR Inten    --    119.8855                79.0688               821.6360

                     31                     32                     33
                      A                      A                      A
 Frequencies --   1292.7132              1389.6626              1468.3104
 Red. masses --      2.6622                 5.7262                 3.6430
 Frc consts  --      2.6212                 6.5154                 4.6275
 IR Inten    --    202.4202                 4.1331                 9.0003

                     34                     35                     36
                      A                      A                      A
 Frequencies --   1527.6602              1666.8305              1682.6000
 Red. masses --      3.6895                 8.1101                 9.0451
 Frc consts  --      5.0731                13.2757                15.0878
 IR Inten    --    284.0161                 5.4427                 6.2568

                     37                     38                     39
                      A                      A                      A
 Frequencies --   3227.3189              3239.4043              3249.6879
 Red. masses --      1.0894                 1.0958                 1.0937
 Frc consts  --      6.6850                 6.7751                 6.8048
 IR Inten    --      0.3791                 0.3419                 1.4221

 - Thermochemistry -
 -------------------
 Temperature   298.150 Kelvin.  Pressure   1.00000 Atm.
 Atom     1 has atomic number  9 and mass  18.99840

 Molecular mass:   235.92845 amu.
 Principal axes and moments of inertia in atomic units:
                           1         2         3
     Eigenvalues --   759.533926435.386376879.26560
           X            0.99999  -0.00445  -0.00004
           Y            0.00445   0.99999  -0.00012
           Z            0.00004   0.00012   1.00000
 This molecule is an asymmetric top.
 Rotational symmetry number  1.
 Warning -- assumption of classical behavior for rotation
           may cause significant error
 Rotational temperatures (Kelvin)      0.11404     0.01346     0.01259
 Rotational constants (GHZ):           2.37612     0.28044     0.26235
 Zero-point vibrational energy     237203.4 (Joules/Mol)
                                   56.69298 (Kcal/Mol)
 Warning -- explicit consideration of  13 degrees of freedom as
           vibrations may cause significant error
 Vibrational temperatures:     69.12   168.47   241.93   298.10   371.51
          (Kelvin)            460.32   518.21   574.77   606.35   616.69
                              852.17   853.43   865.69   907.04   986.53
                             1024.99  1028.77  1185.00  1213.63  1268.77
                             1301.19  1333.83  1361.27  1497.59  1537.37
                             1655.74  1800.76  1813.67  1836.63  1839.78
                             1859.93  1999.41  2112.57  2197.96  2398.20
                             2420.89  4643.39  4660.78  4675.58

 Zero-point correction=                           0.090346 (Hartree/Particle)
 Thermal correction to Energy=                    0.099457
 Thermal correction to Enthalpy=                  0.100402
 Thermal correction to Gibbs Free Energy=         0.054063
 Sum of electronic and zero-point Energies=          -3190.323644
 Sum of electronic and thermal Energies=             -3190.314533
 Sum of electronic and thermal Enthalpies=           -3190.313589
 Sum of electronic and thermal Free Energies=        -3190.359928

                     E (Thermal)             CV                S
                      KCal/Mol        Cal/Mol-Kelvin    Cal/Mol-Kelvin
 Total                   62.410             34.536             97.528
 Electronic               0.000              0.000              0.000
 Translational            0.889              2.981             42.277
 Rotational               0.889              2.981             31.886
 Vibrational             60.633             28.574             23.365
 Vibration     1          0.595              1.978              4.896
 Vibration     2          0.608              1.935              3.148
 Vibration     3          0.625              1.882              2.456
 Vibration     4          0.641              1.830              2.068
 Vibration     5          0.667              1.749              1.674
 Vibration     6          0.706              1.635              1.310
 Vibration     7          0.735              1.554              1.121
 Vibration     8          0.766              1.471              0.965
 Vibration     9          0.784              1.424              0.887
 Vibration    10          0.790              1.408              0.863
 Vibration    11          0.950              1.048              0.463
 Vibration    12          0.951              1.046              0.462
 Vibration    13          0.960              1.028              0.447

 Optimization completed.
    -- Stationary point found.
 Normal termination of Gaussian 16 at Tue Sep 17 09:51:40 2024.

 ----------------------------------------------------------------------
 #p M062X/def2tzvp geom=check guess=read scf(xqc,tight) integral(grid=u
 ltrafine) scrf(SMD, solvent=1,4-Dioxane) polar prop=efg volume
 ----------------------------------------------------------------------

 ---
 spe
 ---
 Structure from the checkpoint file:  "smiles_00016_conf_0.chk"
 Charge =  0 Multiplicity = 1

 SCF Done:  E(RM062X) =  -3192.91470666     A.U. after   11 cycles

  Exact polarizability:     169.161       3.165     115.126       0.005       0.006      69.231
 Approx polarizability:     171.516       3.500     140.487       0.004       0.007      85.979

 Normal termination of Gaussian 16 at Tue Sep 17 10:19:50 2024.
 Gaussian 16:  ES64L-G16RevC.02  7-Dec-2021

 ----------------------------------------------------------------------
 #p M062X/def2tzvp geom=check guess=read scf(xqc,tight) integral(grid=u
 ltrafine) scrf(SMD, solvent=1,4-Dioxane) nmr=giao
 ----------------------------------------------------------------------

 ---
 spe
 ---
 Structure from the checkpoint file:  "smiles_00016_conf_0.chk"
 Charge =  0 Multiplicity = 1

                         Standard orientation:
 ---------------------------------------------------------------------
 Center     Atomic      Atomic             Coordinates (Angstroms)
 Number     Number       Type             X           Y           Z
 ---------------------------------------------------------------------
      1          9           0        3.809260   -0.472225   -1.078381
      2          6           0        3.038201   -0.272295    0.000094
      3          9           0        3.809139   -0.472485    1.078612
      4          8           0        2.541254    1.030096    0.000227
      5          6           0        1.163776    0.926949    0.000160
      6          6           0        0.217371    1.928438    0.000248
      7          6           0       -1.127479    1.521591    0.000142
      8          6           0       -1.458102    0.167701   -0.000042
      9         35           0       -3.298930   -0.334952   -0.000180
     10          6           0       -0.490568   -0.849669   -0.000131
     11          6           0        0.818113   -0.417695   -0.000023
     12          8           0        1.972263   -1.173378   -0.000076
     13          1           0        0.493898    2.975478    0.000391
     14          1           0       -1.915375    2.264120    0.000204
     15          1           0       -0.757586   -1.897734   -0.000272
 ---------------------------------------------------------------------

 SCF Done:  E(RM062X) =  -3192.91470666     A.U. after    1 cycles

      1  F    Isotropic =   223.9818   Anisotropy =   158.2976

      2  C    Isotropic =    40.4739   Anisotropy =    14.0929

      3  F    Isotropic =   223.9792   Anisotropy =   158.3016

      4  O    Isotropic =   137.9929   Anisotropy =    33.3781

      5  C    Isotropic =    21.7565   Anisotropy =   117.1163

      6  C    Isotropic =    56.1827   Anisotropy =   180.4197

      7  C    Isotropic =    36.4375   Anisotropy =   177.6759

      8  C    Isotropic =    31.2343   Anisotropy =   141.2219

      9  Br   Isotropic =  2060.8427   Anisotropy =  1337.3961

     10  C    Isotropic =    52.9006   Anisotropy =   153.7999

     11  C    Isotropic =    20.6912   Anisotropy =   116.6650

     12  O    Isotropic =   135.4274   Anisotropy =    33.8485

     13  H    Isotropic =    24.1550   Anisotropy =     5.2085

     14  H    Isotropic =    23.8973   Anisotropy =     9.7307

     15  H    Isotropic =    24.0316   Anisotropy =     9.5070

 The electronic state is 1-A.
 Alpha  occ. eigenvalues -- -485.38454 -63.36929 -57.18879 -57.18635 -57.18630
 Alpha  occ. eigenvalues --  -25.29231 -25.29230 -19.71541 -19.71454 -10.84282
 Alpha  occ. eigenvalues --  -10.63820 -10.63493 -10.62013 -10.58034 -10.57782
 Alpha  occ. eigenvalues --  -10.57267  -9.03574  -6.85996  -6.85094  -6.85079
 Alpha  occ. eigenvalues --   -2.89372  -2.89045  -2.89025  -2.88185  -2.88185
 Alpha  occ. eigenvalues --   -1.46438  -1.38670  -1.29176  -1.21074  -1.00316
 Alpha  occ. eigenvalues --   -0.91955  -0.88581  -0.84934  -0.79303  -0.76185
 Alpha  occ. eigenvalues --   -0.74247  -0.70978  -0.69500  -0.64811  -0.62226
 Alpha  occ. eigenvalues --   -0.58388  -0.57610  -0.56193  -0.55800  -0.53933
 Alpha  occ. eigenvalues --   -0.53789  -0.53095  -0.51519  -0.49796  -0.48726
 Alpha  occ. eigenvalues --   -0.45713  -0.45396  -0.43901  -0.37878  -0.36112
 Alpha  occ. eigenvalues --   -0.33057  -0.29728
 Alpha virt. eigenvalues --   -0.00583   0.00731   0.02404   0.09399   0.09785
 Alpha virt. eigenvalues --    0.10376   0.12701   0.14841   0.16162   0.16925
 Alpha virt. eigenvalues --    0.17815   0.18619   0.18943   0.20462   0.21378

 Mulliken charges:
               1
     1  F   -0.168484
     2  C    0.554866
     3  F   -0.168486
     4  O   -0.262191
     5  C    0.182155
     6  C   -0.226531
     7  C   -0.140288
     8  C    0.059413
     9  Br  -0.098437
    10  C   -0.239140
    11  C    0.189868
    12  O   -0.262223
    13  H    0.188932
    14  H    0.186618
    15  H    0.203929
 Sum of Mulliken charges =  -0.00000

 Dipole moment (field-independent basis, Debye):
    X=             -1.3264    Y=              1.3948    Z=              0.0001  Tot=              1.9248
 Quadrupole moment (field-independent basis, Debye-Ang):
   XX=            -89.2962   YY=            -71.8819   ZZ=            -81.8695
   XY=              0.3896   XZ=             -0.0003   YZ=              0.0013

 Normal termination of Gaussian 16 at Tue Sep 17 10:31:04 2024.
