 Gaussian 16, Revision C.02,

 ----------------------------------------------------------------------
 #p B3LYP/6-31G(d,p) EmpiricalDispersion=GD3BJ opt freq scf(xqc,tight)
 integral(grid=ultrafine)
 ----------------------------------------------------------------------

 ----------------------------------
 opt-freq conformers_unique/conf_aa
 ----------------------------------
 Symbolic Z-matrix:
 Charge =  0 Multiplicity = 1

 SCF Done:  E(RB3LYP) =  -2917.91600650     A.U. after   14 cycles
 SCF Done:  E(RB3LYP) =  -2917.91671127     A.U. after   11 cycles
 SCF Done:  E(RB3LYP) =  -2917.91673537     A.U. after   10 cycles
 SCF Done:  E(RB3LYP) =  -2917.91673776     A.U. after    8 cycles
 Optimization completed.
    -- Stationary point found.
 Normal termination of Gaussian 16 at Tue Sep 17 09:46:44 2024.

 ----------------------------------------------------------------------
 #P Geom=AllCheck Guess=TCheck SCRF=Check GenChk RB3LYP/6-31G(d,p) Freq
 ----------------------------------------------------------------------

 Structure from the checkpoint file:  "smiles_00013_conf_0.chk"
 ----------------------------------
 opt-freq conformers_unique/conf_aa
 ----------------------------------
 Charge =  0 Multiplicity = 1

 SCF Done:  E(RB3LYP) =  -2917.91673776     A.U. after    1 cycles

                      1                      2                      3
                      A                      A                      A
 Frequencies --     72.5536               132.7058               181.7052
 Red. masses --      3.6611                 5.1177                 4.9412
 Frc consts  --      0.0114                 0.0531                 0.0961
 IR Inten    --      1.3385                 3.2470                 0.9126

                      4                      5                      6
                      A                      A                      A
 Frequencies --    248.9855               266.3732               316.9715
 Red. masses --      1.1687                 7.8146                 4.4354
 Frc consts  --      0.0427                 0.3267                 0.2626
 IR Inten    --      0.0264                 1.9436                 0.6953

                      7                      8                      9
                      A                      A                      A
 Frequencies --    334.1369               430.5248               488.8463
 Red. masses --      4.3058                 3.0943                 4.1277
 Frc consts  --      0.2832                 0.3379                 0.5812
 IR Inten    --      2.4628                 0.0000                 0.1383

                     10                     11                     12
                      A                      A                      A
 Frequencies --    520.5913               608.6206               646.9137
 Red. masses --      2.6122                 6.0319                 7.0816
 Frc consts  --      0.4171                 1.3164                 1.7461
 IR Inten    --      7.8601                33.7306                 1.8928

                     13                     14                     15
                      A                      A                      A
 Frequencies --    718.9258               813.2010               820.1251
 Red. masses --      3.5133                 5.5227                 1.2819
 Frc consts  --      1.0699                 2.1518                 0.5080
 IR Inten    --      0.0000                 0.9666                 7.0086

                     16                     17                     18
                      A                      A                      A
 Frequencies --    843.1226               954.1509               970.9099
 Red. masses --      1.5967                 1.3322                 1.3168
 Frc consts  --      0.6687                 0.7146                 0.7313
 IR Inten    --     46.4253                 0.0741                 0.0020

                     19                     20                     21
                      A                      A                      A
 Frequencies --   1022.5816              1078.3936              1096.2945
 Red. masses --      4.0916                 7.6240                 2.4243
 Frc consts  --      2.5208                 5.2238                 1.7167
 IR Inten    --     16.9339                61.7646                19.0740

                     22                     23                     24
                      A                      A                      A
 Frequencies --   1135.4787              1180.1564              1201.4382
 Red. masses --      1.3040                 1.2741                 1.1564
 Frc consts  --      0.9906                 1.0455                 0.9834
 IR Inten    --      7.9544                 0.7407                18.8530

                     25                     26                     27
                      A                      A                      A
 Frequencies --   1213.4887              1300.1570              1330.0254
 Red. masses --      1.3761                 4.8502                 1.2777
 Frc consts  --      1.1939                 4.8306                 1.3317
 IR Inten    --      8.4613               245.3228                 1.5444

                     28                     29                     30
                      A                      A                      A
 Frequencies --   1354.3268              1451.0842              1488.2114
 Red. masses --      8.2510                 3.1082                 1.2053
 Frc consts  --      8.9167                 3.8560                 1.5728
 IR Inten    --     53.4725                 0.4340                24.9689

                     31                     32                     33
                      A                      A                      A
 Frequencies --   1505.4588              1519.7537              1540.6048
 Red. masses --      1.0461                 1.0764                 2.2577
 Frc consts  --      1.3969                 1.4648                 3.1572
 IR Inten    --      5.8256                59.7097               136.7417

                     34                     35                     36
                      A                      A                      A
 Frequencies --   1632.1881              1657.2468              3016.9307
 Red. masses --      7.1234                 5.8456                 1.0349
 Frc consts  --     11.1809                 9.4592                 5.5500
 IR Inten    --     11.4915                37.2006                52.9084

                     37                     38                     39
                      A                      A                      A
 Frequencies --   3079.0931              3154.5332              3210.1494
 Red. masses --      1.1061                 1.0999                 1.0881
 Frc consts  --      6.1788                 6.4489                 6.6068
 IR Inten    --     40.8348                23.8777                 3.6225

                     40                     41                     42
                      A                      A                      A
 Frequencies --   3214.8345              3225.0804              3232.1997
 Red. masses --      1.0890                 1.0955                 1.0934
 Frc consts  --      6.6315                 6.7136                 6.7300
 IR Inten    --      2.1957                 3.5567                 6.3209

 - Thermochemistry -
 -------------------
 Temperature   298.150 Kelvin.  Pressure   1.00000 Atm.
 Atom     1 has atomic number  6 and mass  12.00000

 Molecular mass:   185.96803 amu.
 Principal axes and moments of inertia in atomic units:
                           1         2         3
     Eigenvalues --   375.740973969.178284333.41963
           X            0.99989   0.01475   0.00004
           Y           -0.01475   0.99989  -0.00001
           Z           -0.00004   0.00001   1.00000
 This molecule is an asymmetric top.
 Rotational symmetry number  1.
 Rotational temperatures (Kelvin)      0.23051     0.02182     0.01999
 Rotational constants (GHZ):           4.80315     0.45469     0.41647
 Zero-point vibrational energy     324242.3 (Joules/Mol)
                                   77.49576 (Kcal/Mol)
 Warning -- explicit consideration of  11 degrees of freedom as
           vibrations may cause significant error
 Vibrational temperatures:    104.39   190.93   261.43   358.23   383.25
          (Kelvin)            456.05   480.75   619.43   703.34   749.01
                              875.67   930.76  1034.37  1170.01  1179.98
                             1213.07  1372.81  1396.92  1471.27  1551.57
                             1577.32  1633.70  1697.98  1728.60  1745.94
                             1870.64  1913.61  1948.57  2087.79  2141.20
                             2166.02  2186.59  2216.59  2348.35  2384.41
                             4340.69  4430.13  4538.67  4618.69  4625.43
                             4640.17  4650.41

 Zero-point correction=                           0.123497 (Hartree/Particle)
 Thermal correction to Energy=                    0.131750
 Thermal correction to Enthalpy=                  0.132694
 Thermal correction to Gibbs Free Energy=         0.089169
 Sum of electronic and zero-point Energies=          -2917.793240
 Sum of electronic and thermal Energies=             -2917.784988
 Sum of electronic and thermal Enthalpies=           -2917.784044
 Sum of electronic and thermal Free Energies=        -2917.827569

                     E (Thermal)             CV                S
                      KCal/Mol        Cal/Mol-Kelvin    Cal/Mol-Kelvin
 Total                   82.674             30.431             91.607
 Electronic               0.000              0.000              0.000
 Translational            0.889              2.981             41.567
 Rotational               0.889              2.981             30.248
 Vibrational             80.897             24.470             19.792
 Vibration     1          0.599              1.967              4.083
 Vibration     2          0.613              1.921              2.906
 Vibration     3          0.630              1.865              2.311
 Vibration     4          0.662              1.764              1.738
 Vibration     5          0.672              1.735              1.620
 Vibration     6          0.704              1.641              1.326
 Vibration     7          0.716              1.607              1.240
 Vibration     8          0.792              1.404              0.857
 Vibration     9          0.845              1.275              0.687
 Vibration    10          0.876              1.204              0.609
 Vibration    11          0.968              1.014              0.435

 Optimization completed.
    -- Stationary point found.
 Normal termination of Gaussian 16 at Tue Sep 17 09:47:32 2024.

 ----------------------------------------------------------------------
 #p M062X/def2tzvp geom=check guess=read scf(xqc,tight) integral(grid=u
 ltrafine) scrf(SMD, solvent=1,4-Dioxane) polar prop=efg volume
 ----------------------------------------------------------------------

 ---
 spe
 ---
 Structure from the checkpoint file:  "smiles_00013_conf_0.chk"
 Charge =  0 Multiplicity = 1

 SCF Done:  E(RM062X) =  -2920.35454930     A.U. after   12 cycles

  Exact polarizability:     175.220       1.529     116.136      -0.004       0.001      70.740
 Approx polarizability:     172.356      -1.666     137.952      -0.003       0.001      86.249

 Normal termination of Gaussian 16 at Tue Sep 17 10:08:25 2024.
 Gaussian 16:  ES64L-G16RevC.02  7-Dec-2021

 ----------------------------------------------------------------------
 #p M062X/def2tzvp geom=check guess=read scf(xqc,tight) integral(grid=u
 ltrafine) scrf(SMD, solvent=1,4-Dioxane) nmr=giao
 ----------------------------------------------------------------------

 ---
 spe
 ---
 Structure from the checkpoint file:  "smiles_00013_conf_0.chk"
 Charge =  0 Multiplicity = 1

                         Standard orientation:
 ---------------------------------------------------------------------
 Center     Atomic      Atomic             Coordinates (Angstroms)
 Number     Number       Type             X           Y           Z
 ---------------------------------------------------------------------
      1          6           0       -4.249047   -0.625654    0.000170
      2          8           0       -3.389172    0.502382    0.000116
      3          6           0       -2.044898    0.279522    0.000069
      4          6           0       -1.450031   -0.986760    0.000025
      5          6           0       -0.057723   -1.100125   -0.000023
      6          6           0        0.728699    0.044538   -0.000027
      7         35           0        2.633534   -0.115192   -0.000094
      8          6           0        0.144991    1.312333    0.000015
      9          6           0       -1.238413    1.426534    0.000063
     10          1           0       -5.265052   -0.229894    0.000237
     11          1           0       -4.101666   -1.245040   -0.893600
     12          1           0       -4.101549   -1.245045    0.893917
     13          1           0       -2.050315   -1.887695    0.000024
     14          1           0        0.406874   -2.079180   -0.000057
     15          1           0        0.768696    2.198475    0.000010
     16          1           0       -1.718768    2.398699    0.000097
 ---------------------------------------------------------------------

 SCF Done:  E(RM062X) =  -2920.35454930     A.U. after    1 cycles

      1  C    Isotropic =   129.6863   Anisotropy =    73.8022

      2  O    Isotropic =   225.2248   Anisotropy =    96.0162

      3  C    Isotropic =     3.1764   Anisotropy =   169.8695

      4  C    Isotropic =    56.5814   Anisotropy =   184.3229

      5  C    Isotropic =    30.5015   Anisotropy =   184.9363

      6  C    Isotropic =    37.0919   Anisotropy =   124.7277

      7  Br   Isotropic =  2122.3045   Anisotropy =  1273.4585

      8  C    Isotropic =    30.1870   Anisotropy =   185.4077

      9  C    Isotropic =    45.5482   Anisotropy =   173.5809

     10  H    Isotropic =    27.8277   Anisotropy =     8.3129

     11  H    Isotropic =    28.2591   Anisotropy =     8.0044

     12  H    Isotropic =    28.2592   Anisotropy =     8.0043

     13  H    Isotropic =    24.3637   Anisotropy =     8.5472

     14  H    Isotropic =    23.6814   Anisotropy =    10.4561

     15  H    Isotropic =    23.7540   Anisotropy =    10.0211

     16  H    Isotropic =    24.1453   Anisotropy =     6.9546

 The electronic state is 1-A.
 Alpha  occ. eigenvalues -- -485.37180 -63.35660 -57.17604 -57.17368 -57.17365
 Alpha  occ. eigenvalues --  -19.66165 -10.61232 -10.59607 -10.58929 -10.55812
 Alpha  occ. eigenvalues --  -10.55719 -10.55171 -10.54865  -9.02305  -6.84708
 Alpha  occ. eigenvalues --   -6.83834  -6.83826  -2.88085  -2.87766  -2.87752
 Alpha  occ. eigenvalues --   -2.86938  -2.86937  -1.19560  -0.97709  -0.89676
 Alpha  occ. eigenvalues --   -0.85926  -0.83116  -0.77828  -0.70799  -0.67188
 Alpha  occ. eigenvalues --   -0.61681  -0.56823  -0.55217  -0.54048  -0.52285
 Alpha  occ. eigenvalues --   -0.50187  -0.48866  -0.46483  -0.43819  -0.42214
 Alpha  occ. eigenvalues --   -0.41488  -0.40107  -0.35775  -0.34893  -0.32173
 Alpha  occ. eigenvalues --   -0.27586
 Alpha virt. eigenvalues --    0.00824   0.02413   0.03921   0.07992   0.10007
 Alpha virt. eigenvalues --    0.11138   0.12287   0.13370   0.14061   0.15312
 Alpha virt. eigenvalues --    0.16057   0.17255   0.18107   0.19206   0.22067

 Mulliken charges:
               1
     1  C   -0.309689
     2  O   -0.286131
     3  C    0.289282
     4  C   -0.254627
     5  C   -0.166924
     6  C    0.016833
     7  Br  -0.126253
     8  C   -0.141606
     9  C   -0.220701
    10  H    0.164530
    11  H    0.160130
    12  H    0.160131
    13  H    0.182902
    14  H    0.180336
    15  H    0.180473
    16  H    0.171314
 Sum of Mulliken charges =  -0.00000

 Dipole moment (field-independent basis, Debye):
    X=             -3.0197    Y=             -1.1710    Z=              0.0001  Tot=              3.2388
 Quadrupole moment (field-independent basis, Debye-Ang):
   XX=            -59.2464   YY=            -59.4422   ZZ=            -69.1231
   XY=              5.9866   XZ=             -0.0005   YZ=             -0.0000

 Normal termination of Gaussian 16 at Tue Sep 17 10:16:01 2024.
