 Gaussian 16, Revision C.02,

 ----------------------------------------------------------------------
 #p B3LYP/6-31G(d,p) EmpiricalDispersion=GD3BJ opt freq scf(xqc,tight)
 integral(grid=ultrafine)
 ----------------------------------------------------------------------

 ----------------------------------
 opt-freq conformers_unique/conf_aa
 ----------------------------------
 Symbolic Z-matrix:
 Charge =  0 Multiplicity = 1

 SCF Done:  E(RB3LYP) =  -3128.16274323     A.U. after   15 cycles
 SCF Done:  E(RB3LYP) =  -3128.16504246     A.U. after   12 cycles
 SCF Done:  E(RB3LYP) =  -3128.16532369     A.U. after   12 cycles
 SCF Done:  E(RB3LYP) =  -3128.16559326     A.U. after   12 cycles
 SCF Done:  E(RB3LYP) =  -3128.16572036     A.U. after   11 cycles
 SCF Done:  E(RB3LYP) =  -3128.16573220     A.U. after   11 cycles
 SCF Done:  E(RB3LYP) =  -3128.16577115     A.U. after   11 cycles
 SCF Done:  E(RB3LYP) =  -3128.16577956     A.U. after    9 cycles
 SCF Done:  E(RB3LYP) =  -3128.16578607     A.U. after   10 cycles
 SCF Done:  E(RB3LYP) =  -3128.16578735     A.U. after    8 cycles
 SCF Done:  E(RB3LYP) =  -3128.16578744     A.U. after    7 cycles
 SCF Done:  E(RB3LYP) =  -3128.16578748     A.U. after    6 cycles
 SCF Done:  E(RB3LYP) =  -3128.16578751     A.U. after    7 cycles
 Optimization completed.
    -- Stationary point found.
 Normal termination of Gaussian 16 at Tue Sep 17 10:00:45 2024.

 ----------------------------------------------------------------------
 #P Geom=AllCheck Guess=TCheck SCRF=Check GenChk RB3LYP/6-31G(d,p) Freq
 ----------------------------------------------------------------------

 Structure from the checkpoint file:  "smiles_00050_conf_0.chk"
 ----------------------------------
 opt-freq conformers_unique/conf_aa
 ----------------------------------
 Charge =  0 Multiplicity = 1

 SCF Done:  E(RB3LYP) =  -3128.16578751     A.U. after    1 cycles

                      1                      2                      3
                      A                      A                      A
 Frequencies --     38.4663                63.5667                70.1482
 Red. masses --      4.6081                 3.5335                 4.5107
 Frc consts  --      0.0040                 0.0084                 0.0131
 IR Inten    --      2.1807                 0.2468                 0.9664

                      4                      5                      6
                      A                      A                      A
 Frequencies --     91.2973               145.4380               187.5527
 Red. masses --      3.4919                 5.2668                 4.7850
 Frc consts  --      0.0171                 0.0656                 0.0992
 IR Inten    --      1.8293                 0.3571                 0.5068

                      7                      8                      9
                      A                      A                      A
 Frequencies --    218.6559               238.5902               277.3694
 Red. masses --      4.0594                 3.2109                 1.7791
 Frc consts  --      0.1144                 0.1077                 0.0806
 IR Inten    --      4.0035                 0.9412                 0.6515

                     10                     11                     12
                      A                      A                      A
 Frequencies --    296.7484               307.7173               329.5393
 Red. masses --      8.0004                 6.0839                 5.1484
 Frc consts  --      0.4151                 0.3394                 0.3294
 IR Inten    --      2.3260                 9.9695                 0.2297

                     13                     14                     15
                      A                      A                      A
 Frequencies --    410.4923               449.1133               504.0912
 Red. masses --      5.6681                 3.4663                 5.3274
 Frc consts  --      0.5627                 0.4119                 0.7976
 IR Inten    --      8.7336                 3.1681                 1.2452

                     16                     17                     18
                      A                      A                      A
 Frequencies --    577.9132               607.1779               663.3769
 Red. masses --      1.9510                 4.7181                 6.5757
 Frc consts  --      0.3839                 1.0248                 1.7050
 IR Inten    --      0.9430                 5.5103                 5.9965

                     19                     20                     21
                      A                      A                      A
 Frequencies --    694.7465               713.1247               750.2493
 Red. masses --      3.8246                 3.5168                 2.7045
 Frc consts  --      1.0877                 1.0537                 0.8969
 IR Inten    --     13.7730                24.9267                32.0545

                     22                     23                     24
                      A                      A                      A
 Frequencies --    783.2638               822.1675               863.7630
 Red. masses --      3.6292                 1.6914                 1.8042
 Frc consts  --      1.3118                 0.6736                 0.7931
 IR Inten    --     13.5443                13.8167                 7.2303

                     25                     26                     27
                      A                      A                      A
 Frequencies --    891.1310               916.3220               925.4933
 Red. masses --      1.9499                 2.2935                 1.5900
 Frc consts  --      0.9123                 1.1346                 0.8024
 IR Inten    --      5.8119                 8.2231                 7.6765

                     28                     29                     30
                      A                      A                      A
 Frequencies --    929.6993               941.9310               957.7271
 Red. masses --      2.1937                 1.3875                 1.7692
 Frc consts  --      1.1172                 0.7253                 0.9561
 IR Inten    --      2.7992                 0.2374                 4.7940

                     31                     32                     33
                      A                      A                      A
 Frequencies --    987.5165               997.3445              1017.8476
 Red. masses --      1.8317                 1.3220                 5.6786
 Frc consts  --      1.0524                 0.7748                 3.4662
 IR Inten    --      3.0983                 0.9362                 6.7688

                     34                     35                     36
                      A                      A                      A
 Frequencies --   1046.7117              1098.3657              1122.9154
 Red. masses --      1.8685                 2.1951                 1.5419
 Frc consts  --      1.2061                 1.5603                 1.1455
 IR Inten    --      3.4269                17.2202                 8.7909

                     37                     38                     39
                      A                      A                      A
 Frequencies --   1145.0792              1174.1119              1185.4330
 Red. masses --      1.6532                 1.7452                 2.1814
 Frc consts  --      1.2772                 1.4175                 1.8061
 IR Inten    --      2.8984                 8.3177                 3.5344

                     40                     41                     42
                      A                      A                      A
 Frequencies --   1195.6469              1206.5247              1234.0306
 Red. masses --      1.1195                 1.8156                 2.3336
 Frc consts  --      0.9429                 1.5572                 2.0938
 IR Inten    --      1.8914                 0.5514                55.1892

                     43                     44                     45
                      A                      A                      A
 Frequencies --   1258.6987              1280.6981              1315.4946
 Red. masses --      1.2642                 1.3228                 1.5082
 Frc consts  --      1.1801                 1.2784                 1.5378
 IR Inten    --     19.0073                12.0361                 4.9469

                     46                     47                     48
                      A                      A                      A
 Frequencies --   1327.4543              1355.4168              1357.6612
 Red. masses --      1.3479                 3.9808                 1.3218
 Frc consts  --      1.3994                 4.3089                 1.4355
 IR Inten    --      0.3533                 0.8329                 2.4797

                     49                     50                     51
                      A                      A                      A
 Frequencies --   1376.5197              1386.5032              1433.2661
 Red. masses --      1.5180                 1.3932                 6.1237
 Frc consts  --      1.6947                 1.5780                 7.4117
 IR Inten    --      2.6924                 7.1239               446.9204

                     52                     53                     54
                      A                      A                      A
 Frequencies --   1454.1294              1504.1844              1511.4361
 Red. masses --      2.9523                 1.0911                 1.1185
 Frc consts  --      3.6780                 1.4546                 1.5054
 IR Inten    --     13.6219                 3.4823                 6.7574

                     55                     56                     57
                      A                      A                      A
 Frequencies --   1519.0685              1528.3543              1541.0259
 Red. masses --      2.3840                 1.0840                 1.1093
 Frc consts  --      3.2412                 1.4919                 1.5521
 IR Inten    --     17.7899                 0.4605                 2.7373

                     58                     59                     60
                      A                      A                      A
 Frequencies --   1621.2340              1650.5631              1732.6740
 Red. masses --      6.1289                 6.1583                12.0091
 Frc consts  --      9.4912                 9.8849                21.2419
 IR Inten    --     51.7170                 0.2622               254.7973

                     61                     62                     63
                      A                      A                      A
 Frequencies --   3021.4278              3055.4303              3058.6906
 Red. masses --      1.0714                 1.0684                 1.0662
 Frc consts  --      5.7627                 5.8766                 5.8772
 IR Inten    --     39.3376                22.8633                17.6150

                     64                     65                     66
                      A                      A                      A
 Frequencies --   3064.2655              3104.8929              3119.1224
 Red. masses --      1.0613                 1.0997                 1.0971
 Frc consts  --      5.8716                 6.2462                 6.2889
 IR Inten    --     25.0994                25.8208                21.7720

                     67                     68                     69
                      A                      A                      A
 Frequencies --   3122.8438              3128.9345              3196.8587
 Red. masses --      1.0971                 1.1045                 1.0883
 Frc consts  --      6.3037                 6.3712                 6.5533
 IR Inten    --     20.0496                37.7953                 8.7628

                     70                     71                     72
                      A                      A                      A
 Frequencies --   3222.9719              3227.7796              3232.4111
 Red. masses --      1.0924                 1.0949                 1.0912
 Frc consts  --      6.6854                 6.7209                 6.7173
 IR Inten    --      1.1969                 4.8049                 0.3573

 - Thermochemistry -
 -------------------
 Temperature   298.150 Kelvin.  Pressure   1.00000 Atm.
 Atom     1 has atomic number  8 and mass  15.99491

 Molecular mass:   253.01023 amu.
 Principal axes and moments of inertia in atomic units:
                           1         2         3
     Eigenvalues --  2061.780846858.158698385.20606
           X            0.99852   0.05429   0.00276
           Y           -0.05429   0.99852  -0.00136
           Z           -0.00283   0.00121   1.00000
 This molecule is an asymmetric top.
 Rotational symmetry number  1.
 Warning -- assumption of classical behavior for rotation
           may cause significant error
 Rotational temperatures (Kelvin)      0.04201     0.01263     0.01033
 Rotational constants (GHZ):           0.87533     0.26315     0.21523
 Zero-point vibrational energy     554998.0 (Joules/Mol)
                                  132.64769 (Kcal/Mol)
 Warning -- explicit consideration of  17 degrees of freedom as
           vibrations may cause significant error
 Vibrational temperatures:     55.34    91.46   100.93   131.36   209.25
          (Kelvin)            269.85   314.60   343.28   399.07   426.95
                              442.74   474.13   590.61   646.17   725.27
                              831.49   873.59   954.45   999.59  1026.03
                             1079.44  1126.94  1182.92  1242.76  1282.14
                             1318.38  1331.58  1337.63  1355.23  1377.96
                             1420.82  1434.96  1464.46  1505.98  1580.30
                             1615.62  1647.51  1689.29  1705.57  1720.27
                             1735.92  1775.49  1810.99  1842.64  1892.70
                             1909.91  1950.14  1953.37  1980.50  1994.87
                             2062.15  2092.17  2164.19  2174.62  2185.60
                             2198.96  2217.19  2332.59  2374.79  2492.93
                             4347.16  4396.08  4400.77  4408.79  4467.25
                             4487.72  4493.08  4501.84  4599.57  4637.14
                             4644.05  4650.72

 Zero-point correction=                           0.211388 (Hartree/Particle)
 Thermal correction to Energy=                    0.223851
 Thermal correction to Enthalpy=                  0.224795
 Thermal correction to Gibbs Free Energy=         0.170469
 Sum of electronic and zero-point Energies=          -3127.954400
 Sum of electronic and thermal Energies=             -3127.941936
 Sum of electronic and thermal Enthalpies=           -3127.940992
 Sum of electronic and thermal Free Energies=        -3127.995318

                     E (Thermal)             CV                S
                      KCal/Mol        Cal/Mol-Kelvin    Cal/Mol-Kelvin
 Total                  140.469             46.933            114.338
 Electronic               0.000              0.000              0.000
 Translational            0.889              2.981             42.485
 Rotational               0.889              2.981             33.138
 Vibrational            138.691             40.971             38.715
 Vibration     1          0.594              1.982              5.337
 Vibration     2          0.597              1.972              4.343
 Vibration     3          0.598              1.968              4.149
 Vibration     4          0.602              1.955              3.632
 Vibration     5          0.617              1.908              2.731
 Vibration     6          0.632              1.857              2.252
 Vibration     7          0.646              1.813              1.970
 Vibration     8          0.657              1.781              1.813
 Vibration     9          0.678              1.715              1.550
 Vibration    10          0.690              1.680              1.435
 Vibration    11          0.698              1.659              1.375
 Vibration    12          0.712              1.616              1.262
 Vibration    13          0.775              1.447              0.925
 Vibration    14          0.808              1.363              0.798
 Vibration    15          0.859              1.241              0.648
 Vibration    16          0.934              1.079              0.489
 Vibration    17          0.966              1.017              0.437

 Optimization completed.
    -- Stationary point found.
 Normal termination of Gaussian 16 at Tue Sep 17 10:03:10 2024.

 ----------------------------------------------------------------------
 #p M062X/def2tzvp geom=check guess=read scf(xqc,tight) integral(grid=u
 ltrafine) scrf(SMD, solvent=1,4-Dioxane) polar prop=efg volume
 ----------------------------------------------------------------------

 ---
 spe
 ---
 Structure from the checkpoint file:  "smiles_00050_conf_0.chk"
 Charge =  0 Multiplicity = 1

 SCF Done:  E(RM062X) =  -3130.56600795     A.U. after   12 cycles

  Exact polarizability:     219.154      -3.715     193.237      10.071       8.128     121.303
 Approx polarizability:     214.468     -13.406     216.497      11.279      11.486     146.269

 Normal termination of Gaussian 16 at Tue Sep 17 11:10:32 2024.
 Gaussian 16:  ES64L-G16RevC.02  7-Dec-2021

 ----------------------------------------------------------------------
 #p M062X/def2tzvp geom=check guess=read scf(xqc,tight) integral(grid=u
 ltrafine) scrf(SMD, solvent=1,4-Dioxane) nmr=giao
 ----------------------------------------------------------------------

 ---
 spe
 ---
 Structure from the checkpoint file:  "smiles_00050_conf_0.chk"
 Charge =  0 Multiplicity = 1

                         Standard orientation:
 ---------------------------------------------------------------------
 Center     Atomic      Atomic             Coordinates (Angstroms)
 Number     Number       Type             X           Y           Z
 ---------------------------------------------------------------------
      1          8           0       -2.296400    2.089850   -0.914878
      2          6           0       -1.731536    1.101581   -0.446541
      3          6           0       -0.278375    1.169430   -0.066952
      4          6           0        0.202426    2.386273    0.431026
      5          6           0        1.547147    2.526079    0.761120
      6          6           0        2.436234    1.465488    0.576243
      7          6           0        1.951602    0.269773    0.053511
      8         35           0        3.159076   -1.185611   -0.232833
      9          6           0        0.607811    0.105751   -0.268395
     10          7           0       -2.396751   -0.078839   -0.270176
     11          6           0       -3.829999   -0.114218   -0.612270
     12          6           0       -4.309427   -1.456158   -0.047027
     13          6           0       -3.378418   -1.681817    1.153107
     14          6           0       -2.026006   -1.187856    0.625704
     15          1           0       -0.493293    3.210001    0.540496
     16          1           0        1.914785    3.466603    1.159016
     17          1           0        3.486250    1.565499    0.824270
     18          1           0        0.268218   -0.830565   -0.691723
     19          1           0       -4.335150    0.739054   -0.145513
     20          1           0       -3.967946   -0.018632   -1.692510
     21          1           0       -4.167149   -2.253156   -0.785426
     22          1           0       -5.367683   -1.436211    0.223604
     23          1           0       -3.340013   -2.721234    1.488407
     24          1           0       -3.695840   -1.061969    1.998938
     25          1           0       -1.350436   -0.847381    1.412393
     26          1           0       -1.519716   -1.988494    0.070283
 ---------------------------------------------------------------------

 SCF Done:  E(RM062X) =  -3130.56600795     A.U. after    1 cycles

      1  O    Isotropic =  -143.7593   Anisotropy =   681.6385

      2  C    Isotropic =    -3.8460   Anisotropy =   132.3782

      3  C    Isotropic =    22.7194   Anisotropy =   200.1413

      4  C    Isotropic =    33.1146   Anisotropy =   223.2817

      5  C    Isotropic =    32.9172   Anisotropy =   214.2406

      6  C    Isotropic =    28.8341   Anisotropy =   190.1347

      7  C    Isotropic =    26.5416   Anisotropy =   139.4458

      8  Br   Isotropic =  2076.1137   Anisotropy =  1311.8670

      9  C    Isotropic =    31.9154   Anisotropy =   184.3905

     10  N    Isotropic =   103.6569   Anisotropy =   181.7863

     11  C    Isotropic =   134.5341   Anisotropy =    41.8903

     12  C    Isotropic =   158.3114   Anisotropy =    20.1816

     13  C    Isotropic =   155.8255   Anisotropy =    18.9959

     14  C    Isotropic =   130.9051   Anisotropy =    39.5191

     15  H    Isotropic =    23.1698   Anisotropy =     8.5639

     16  H    Isotropic =    23.6069   Anisotropy =     5.8798

     17  H    Isotropic =    23.5656   Anisotropy =    10.2173

     18  H    Isotropic =    23.3760   Anisotropy =    14.3776

     19  H    Isotropic =    28.2094   Anisotropy =     8.5515

     20  H    Isotropic =    28.3520   Anisotropy =     8.2010

     21  H    Isotropic =    29.9399   Anisotropy =     9.9410

     22  H    Isotropic =    29.8448   Anisotropy =    11.0069

     23  H    Isotropic =    29.9767   Anisotropy =    10.7647

     24  H    Isotropic =    30.1730   Anisotropy =     9.4226

     25  H    Isotropic =    28.2799   Anisotropy =     7.0693

     26  H    Isotropic =    28.1901   Anisotropy =     9.1455

 The electronic state is 1-A.
 Alpha  occ. eigenvalues -- -485.37870 -63.36348 -57.18293 -57.18057 -57.18051
 Alpha  occ. eigenvalues --  -19.59035 -14.77448 -10.64384 -10.60896 -10.57608
 Alpha  occ. eigenvalues --  -10.56680 -10.56564 -10.56474 -10.56228 -10.55729
 Alpha  occ. eigenvalues --  -10.55426 -10.54108 -10.53900  -9.02990  -6.85397
 Alpha  occ. eigenvalues --   -6.84522  -6.84503  -2.88773  -2.88456  -2.88434
 Alpha  occ. eigenvalues --   -2.87618  -2.87618  -1.15708  -1.04995  -0.98665
 Alpha  occ. eigenvalues --   -0.90735  -0.89264  -0.86497  -0.83181  -0.82247
 Alpha  occ. eigenvalues --   -0.75012  -0.70800  -0.69155  -0.67071  -0.62847
 Alpha  occ. eigenvalues --   -0.60599  -0.58035  -0.57204  -0.54509  -0.52363
 Alpha  occ. eigenvalues --   -0.51694  -0.49909  -0.49582  -0.48466  -0.47348
 Alpha  occ. eigenvalues --   -0.46785  -0.46332  -0.43786  -0.42654  -0.41405
 Alpha  occ. eigenvalues --   -0.41246  -0.40836  -0.39505  -0.38123  -0.35663
 Alpha  occ. eigenvalues --   -0.33660  -0.32142  -0.30287  -0.30123
 Alpha virt. eigenvalues --   -0.01491   0.00527   0.03239   0.06077   0.07559
 Alpha virt. eigenvalues --    0.09646   0.09987   0.10624   0.11321   0.12218
 Alpha virt. eigenvalues --    0.12582   0.13156   0.13766   0.14371   0.15445

 Mulliken charges:
               1
     1  O   -0.423313
     2  C    0.278746
     3  C    0.078659
     4  C   -0.201251
     5  C   -0.143538
     6  C   -0.167200
     7  C    0.071766
     8  Br  -0.111900
     9  C   -0.240358
    10  N   -0.148150
    11  C   -0.193894
    12  C   -0.293533
    13  C   -0.281801
    14  C   -0.249497
    15  H    0.180613
    16  H    0.169592
    17  H    0.181530
    18  H    0.208605
    19  H    0.162448
    20  H    0.156754
    21  H    0.154934
    22  H    0.155179
    23  H    0.156108
    24  H    0.156813
    25  H    0.187105
    26  H    0.155583
 Sum of Mulliken charges =  -0.00000

 Dipole moment (field-independent basis, Debye):
    X=             -0.8675    Y=             -2.4384    Z=              2.4656  Tot=              3.5745
 Quadrupole moment (field-independent basis, Debye-Ang):
   XX=            -90.1066   YY=            -95.0861   ZZ=            -97.4774
   XY=             15.6048   XZ=             -2.4496   YZ=              6.5706

 Normal termination of Gaussian 16 at Tue Sep 17 11:35:26 2024.
