 Gaussian 16, Revision C.02,

 ----------------------------------------------------------------------
 #p B3LYP/6-31G(d,p) EmpiricalDispersion=GD3BJ opt freq scf(xqc,tight)
 integral(grid=ultrafine)
 ----------------------------------------------------------------------

 ----------------------------------
 opt-freq conformers_unique/conf_ab
 ----------------------------------
 Symbolic Z-matrix:
 Charge =  0 Multiplicity = 1

 SCF Done:  E(RB3LYP) =  -2933.94017008     A.U. after   15 cycles
 SCF Done:  E(RB3LYP) =  -2933.94142475     A.U. after   12 cycles
 SCF Done:  E(RB3LYP) =  -2933.94135687     A.U. after   12 cycles
 SCF Done:  E(RB3LYP) =  -2933.94162804     A.U. after   11 cycles
 SCF Done:  E(RB3LYP) =  -2933.94163369     A.U. after    8 cycles
 Optimization completed.
    -- Stationary point found.
 Normal termination of Gaussian 16 at Tue Sep 17 09:44:57 2024.

 ----------------------------------------------------------------------
 #P Geom=AllCheck Guess=TCheck SCRF=Check GenChk RB3LYP/6-31G(d,p) Freq
 ----------------------------------------------------------------------

 Structure from the checkpoint file:  "smiles_00041_conf_1.chk"
 ----------------------------------
 opt-freq conformers_unique/conf_ab
 ----------------------------------
 Charge =  0 Multiplicity = 1

 SCF Done:  E(RB3LYP) =  -2933.94163369     A.U. after    1 cycles
 ******    1 imaginary frequencies (negative Signs) ******

                      1                      2                      3
                      A                      A                      A
 Frequencies --    -74.1763               117.7207               201.9653
 Red. masses --      3.2441                 5.4686                10.5839
 Frc consts  --      0.0105                 0.0447                 0.2544
 IR Inten    --      4.5348                 4.2222                 0.8431

                      4                      5                      6
                      A                      A                      A
 Frequencies --    259.9003               279.4067               280.7183
 Red. masses --      2.3932                 3.8904                 1.3350
 Frc consts  --      0.0952                 0.1789                 0.0620
 IR Inten    --      0.3948                 4.7743                 0.0100

                      7                      8                      9
                      A                      A                      A
 Frequencies --    295.0420               475.0306               480.5615
 Red. masses --      6.4093                 4.3586                 5.3515
 Frc consts  --      0.3287                 0.5795                 0.7282
 IR Inten    --      3.6441                 0.0858                 1.7217

                     10                     11                     12
                      A                      A                      A
 Frequencies --    559.2963               581.1689               650.1780
 Red. masses --      4.3853                 5.8619                 8.1440
 Frc consts  --      0.8082                 1.1665                 2.0284
 IR Inten    --      2.5316                 7.3845                11.8914

                     13                     14                     15
                      A                      A                      A
 Frequencies --    735.8565               810.6181               821.3226
 Red. masses --      4.6456                 6.8333                 1.3773
 Frc consts  --      1.4821                 2.6455                 0.5474
 IR Inten    --      3.6668                18.8553                35.2428

                     16                     17                     18
                      A                      A                      A
 Frequencies --    934.6834               981.5907              1044.6081
 Red. masses --      1.3598                 1.3074                 7.9972
 Frc consts  --      0.6999                 0.7422                 5.1416
 IR Inten    --      0.5054                 0.9981                67.8873

                     19                     20                     21
                      A                      A                      A
 Frequencies --   1065.6396              1104.2236              1140.6565
 Red. masses --      6.5476                 2.0548                 1.3428
 Frc consts  --      4.3808                 1.4762                 1.0294
 IR Inten    --     27.3735                 7.4807                22.2307

                     22                     23                     24
                      A                      A                      A
 Frequencies --   1173.6777              1209.4477              1260.6387
 Red. masses --      1.2576                 1.3831                 1.7921
 Frc consts  --      1.0207                 1.1920                 1.6780
 IR Inten    --      0.6149                 7.5438                58.5938

                     25                     26                     27
                      A                      A                      A
 Frequencies --   1290.1407              1343.1746              1454.3396
 Red. masses --      4.6625                 4.0029                 2.5352
 Frc consts  --      4.5724                 4.2550                 3.1594
 IR Inten    --     45.0214               128.6702               166.0161

                     28                     29                     30
                      A                      A                      A
 Frequencies --   1467.5333              1509.5868              1509.8447
 Red. masses --      1.6308                 1.0478                 1.0465
 Frc consts  --      2.0693                 1.4069                 1.4056
 IR Inten    --     58.5558                 7.9755                30.9169

                     31                     32                     33
                      A                      A                      A
 Frequencies --   1518.8984              1599.1086              1640.1551
 Red. masses --      1.6903                 5.5146                 6.2195
 Frc consts  --      2.2976                 8.3084                 9.8577
 IR Inten    --     88.1774                11.3086                20.0754

                     34                     35                     36
                      A                      A                      A
 Frequencies --   3061.9542              3148.7943              3154.5435
 Red. masses --      1.0287                 1.1075                 1.1072
 Frc consts  --      5.6826                 6.4695                 6.4917
 IR Inten    --     46.8987                18.9170                24.6724

                     37                     38                     39
                      A                      A                      A
 Frequencies --   3186.9586              3207.3270              3221.3056
 Red. masses --      1.0888                 1.0902                 1.0977
 Frc consts  --      6.5154                 6.6074                 6.7109
 IR Inten    --     10.8910                12.0059                 8.7442

 - Thermochemistry -
 -------------------
 Temperature   298.150 Kelvin.  Pressure   1.00000 Atm.
 Atom     1 has atomic number  6 and mass  12.00000

 Molecular mass:   186.96327 amu.
 Principal axes and moments of inertia in atomic units:
                           1         2         3
     Eigenvalues --  1034.201831871.455472894.25557
           X            0.99530   0.09686  -0.00013
           Y           -0.09686   0.99530   0.00013
           Z            0.00014  -0.00011   1.00000
 This molecule is an asymmetric top.
 Rotational symmetry number  1.
 Warning -- assumption of classical behavior for rotation
           may cause significant error
 Rotational temperatures (Kelvin)      0.08375     0.04628     0.02993
 Rotational constants (GHZ):           1.74506     0.96435     0.62356
    1 imaginary frequencies ignored.
 Zero-point vibrational energy     291754.9 (Joules/Mol)
                                   69.73110 (Kcal/Mol)
 Warning -- explicit consideration of  10 degrees of freedom as
           vibrations may cause significant error
 Vibrational temperatures:    169.37   290.58   373.94   402.00   403.89
          (Kelvin)            424.50   683.46   691.42   804.70   836.17
                              935.46  1058.73  1166.30  1181.70  1344.80
                             1412.29  1502.96  1533.22  1588.73  1641.15
                             1688.66  1740.13  1813.78  1856.22  1932.53
                             2092.47  2111.45  2171.96  2172.33  2185.36
                             2300.76  2359.82  4405.47  4530.41  4538.68
                             4585.32  4614.63  4634.74

 Zero-point correction=                           0.111124 (Hartree/Particle)
 Thermal correction to Energy=                    0.118516
 Thermal correction to Enthalpy=                  0.119460
 Thermal correction to Gibbs Free Energy=         0.077975
 Sum of electronic and zero-point Energies=          -2933.830510
 Sum of electronic and thermal Energies=             -2933.823118
 Sum of electronic and thermal Enthalpies=           -2933.822174
 Sum of electronic and thermal Free Energies=        -2933.863659

                     E (Thermal)             CV                S
                      KCal/Mol        Cal/Mol-Kelvin    Cal/Mol-Kelvin
 Total                   74.370             27.686             87.314
 Electronic               0.000              0.000              0.000
 Translational            0.889              2.981             41.583
 Rotational               0.889              2.981             30.106
 Vibrational             72.592             21.725             15.625
 Vibration     1          0.608              1.935              3.137
 Vibration     2          0.639              1.837              2.115
 Vibration     3          0.668              1.746              1.662
 Vibration     4          0.680              1.712              1.537
 Vibration     5          0.680              1.709              1.529
 Vibration     6          0.689              1.683              1.445
 Vibration     7          0.832              1.305              0.724
 Vibration     8          0.837              1.293              0.709
 Vibration     9          0.915              1.119              0.525
 Vibration    10          0.938              1.072              0.483

 Optimization completed.
    -- Stationary point found.
 Normal termination of Gaussian 16 at Tue Sep 17 09:46:00 2024.

 ----------------------------------------------------------------------
 #p M062X/def2tzvp geom=check guess=read scf(xqc,tight) integral(grid=u
 ltrafine) scrf(SMD, solvent=1,4-Dioxane) polar prop=efg volume
 ----------------------------------------------------------------------

 ---
 spe
 ---
 Structure from the checkpoint file:  "smiles_00041_conf_1.chk"
 Charge =  0 Multiplicity = 1

 SCF Done:  E(RM062X) =  -2936.38324412     A.U. after   13 cycles

  Exact polarizability:     155.644       6.945     122.959       0.012      -0.009      66.196
 Approx polarizability:     162.588       3.469     139.432       0.011      -0.012      81.972

 Normal termination of Gaussian 16 at Tue Sep 17 10:10:29 2024.
 Gaussian 16:  ES64L-G16RevC.02  7-Dec-2021

 ----------------------------------------------------------------------
 #p M062X/def2tzvp geom=check guess=read scf(xqc,tight) integral(grid=u
 ltrafine) scrf(SMD, solvent=1,4-Dioxane) nmr=giao
 ----------------------------------------------------------------------

 ---
 spe
 ---
 Structure from the checkpoint file:  "smiles_00041_conf_1.chk"
 Charge =  0 Multiplicity = 1

                         Standard orientation:
 ---------------------------------------------------------------------
 Center     Atomic      Atomic             Coordinates (Angstroms)
 Number     Number       Type             X           Y           Z
 ---------------------------------------------------------------------
      1          6           0        1.183000    2.359567    0.000183
      2          8           0       -0.224812    2.118659   -0.000477
      3          6           0       -0.806793    0.895226   -0.000278
      4          6           0       -2.211200    0.953763   -0.000584
      5          6           0       -2.972852   -0.203317   -0.000436
      6          6           0       -2.306684   -1.427989    0.000016
      7          7           0       -0.975790   -1.504543    0.000270
      8          6           0       -0.250802   -0.401277    0.000123
      9         35           0        1.651109   -0.749399    0.000232
     10          1           0        1.663491    1.948967    0.890413
     11          1           0        1.664373    1.948775   -0.889477
     12          1           0        1.270975    3.447143    0.000110
     13          1           0       -2.664421    1.939256   -0.000922
     14          1           0       -4.056473   -0.157343   -0.000666
     15          1           0       -2.845730   -2.371123    0.000195
 ---------------------------------------------------------------------

 SCF Done:  E(RM062X) =  -2936.38324412     A.U. after    1 cycles

      1  C    Isotropic =   124.1391   Anisotropy =    63.9538

      2  O    Isotropic =   233.7061   Anisotropy =    70.7617

      3  C    Isotropic =    10.4854   Anisotropy =   160.8822

      4  C    Isotropic =    32.4704   Anisotropy =   193.9470

      5  C    Isotropic =    40.3506   Anisotropy =   202.3579

      6  C    Isotropic =    21.8631   Anisotropy =   185.3295

      7  N    Isotropic =  -147.5291   Anisotropy =   567.7628

      8  C    Isotropic =    27.0949   Anisotropy =    81.2585

      9  Br   Isotropic =  1951.7903   Anisotropy =  1373.5949

     10  H    Isotropic =    27.1971   Anisotropy =     5.5984

     11  H    Isotropic =    27.1958   Anisotropy =     5.5960

     12  H    Isotropic =    27.8854   Anisotropy =     7.7859

     13  H    Isotropic =    23.8410   Anisotropy =     7.9388

     14  H    Isotropic =    23.9683   Anisotropy =     5.6529

     15  H    Isotropic =    23.0324   Anisotropy =     5.9007

 The electronic state is 1-A.
 Alpha  occ. eigenvalues -- -485.37367 -63.35863 -57.17808 -57.17571 -57.17556
 Alpha  occ. eigenvalues --  -19.66923 -14.76564 -10.63777 -10.63288 -10.58956
 Alpha  occ. eigenvalues --  -10.58173 -10.56444 -10.55856  -9.02512  -6.84924
 Alpha  occ. eigenvalues --   -6.84050  -6.84005  -2.88298  -2.87993  -2.87943
 Alpha  occ. eigenvalues --   -2.87129  -2.87129  -1.20131  -1.07442  -0.91860
 Alpha  occ. eigenvalues --   -0.90272  -0.84696  -0.79405  -0.72531  -0.70414
 Alpha  occ. eigenvalues --   -0.61602  -0.58901  -0.57679  -0.55769  -0.51720
 Alpha  occ. eigenvalues --   -0.49393  -0.49345  -0.47891  -0.43960  -0.42972
 Alpha  occ. eigenvalues --   -0.42434  -0.38249  -0.34782  -0.33826  -0.33772
 Alpha  occ. eigenvalues --   -0.28829
 Alpha virt. eigenvalues --   -0.00654   0.01397   0.03364   0.08232   0.09701
 Alpha virt. eigenvalues --    0.11094   0.12144   0.13274   0.14290   0.14997
 Alpha virt. eigenvalues --    0.15674   0.17775   0.18766   0.20565   0.22978

 Mulliken charges:
               1
     1  C   -0.301527
     2  O   -0.279967
     3  C    0.196356
     4  C   -0.169197
     5  C   -0.159350
     6  C   -0.070669
     7  N   -0.218236
     8  C    0.103028
     9  Br  -0.107070
    10  H    0.165942
    11  H    0.165929
    12  H    0.161462
    13  H    0.177914
    14  H    0.167148
    15  H    0.168238
 Sum of Mulliken charges =  -0.00000

 Dipole moment (field-independent basis, Debye):
    X=             -1.5748    Y=              2.5103    Z=             -0.0001  Tot=              2.9634
 Quadrupole moment (field-independent basis, Debye-Ang):
   XX=            -53.1400   YY=            -64.4956   ZZ=            -67.0974
   XY=              4.3622   XZ=              0.0020   YZ=              0.0018

 Normal termination of Gaussian 16 at Tue Sep 17 10:18:52 2024.
