 Gaussian 16, Revision C.02,

 ----------------------------------------------------------------------
 #p B3LYP/6-31G(d,p) EmpiricalDispersion=GD3BJ opt freq scf(xqc,tight)
 integral(grid=ultrafine)
 ----------------------------------------------------------------------

 ----------------------------------
 opt-freq conformers_unique/conf_aa
 ----------------------------------
 Symbolic Z-matrix:
 Charge =  0 Multiplicity = 1

 SCF Done:  E(RB3LYP) =  -3172.48302913     A.U. after   14 cycles
 SCF Done:  E(RB3LYP) =  -3172.48459511     A.U. after   11 cycles
 SCF Done:  E(RB3LYP) =  -3172.48473609     A.U. after   10 cycles
 SCF Done:  E(RB3LYP) =  -3172.48474451     A.U. after    8 cycles
 SCF Done:  E(RB3LYP) =  -3172.48474524     A.U. after    7 cycles
 Optimization completed.
    -- Stationary point found.
 Normal termination of Gaussian 16 at Tue Sep 17 09:49:28 2024.

 ----------------------------------------------------------------------
 #P Geom=AllCheck Guess=TCheck SCRF=Check GenChk RB3LYP/6-31G(d,p) Freq
 ----------------------------------------------------------------------

 Structure from the checkpoint file:  "smiles_00116_conf_0.chk"
 ----------------------------------
 opt-freq conformers_unique/conf_aa
 ----------------------------------
 Charge =  0 Multiplicity = 1

 SCF Done:  E(RB3LYP) =  -3172.48474524     A.U. after    1 cycles
 ******    1 imaginary frequencies (negative Signs) ******

                      1                      2                      3
                      A                      A                      A
 Frequencies --     -3.4022                62.5675               145.0011
 Red. masses --      8.4548                13.4151                14.6356
 Frc consts  --      0.0001                 0.0309                 0.1813
 IR Inten    --      0.0341                 0.2780                 0.3678

                      4                      5                      6
                      A                      A                      A
 Frequencies --    207.7772               235.2311               268.3630
 Red. masses --      9.7751                24.7298                 8.0827
 Frc consts  --      0.2486                 0.8062                 0.3430
 IR Inten    --      0.2128                 0.0827                 1.2683

                      7                      8                      9
                      A                      A                      A
 Frequencies --    372.0101               405.4688               419.0506
 Red. masses --     13.6866                 9.4710                 4.5400
 Frc consts  --      1.1160                 0.9174                 0.4697
 IR Inten    --      1.5280                 0.0874                 0.0702

                     10                     11                     12
                      A                      A                      A
 Frequencies --    439.5444               488.9085               575.6437
 Red. masses --     11.8271                 5.4639                14.6976
 Frc consts  --      1.3463                 0.7695                 2.8695
 IR Inten    --     15.0209                 0.2143                 3.5196

                     13                     14                     15
                      A                      A                      A
 Frequencies --    588.2068               647.2948               724.7493
 Red. masses --      4.6742                 9.7491                14.9218
 Frc consts  --      0.9528                 2.4067                 4.6179
 IR Inten    --      5.6485                13.4798                 9.9229

                     16                     17                     18
                      A                      A                      A
 Frequencies --    815.4884               831.1823               957.9431
 Red. masses --     10.1707                10.4657                 1.5441
 Frc consts  --      3.9851                 4.2600                 0.8348
 IR Inten    --      3.4703                13.0923                11.2437

                     19                     20                     21
                      A                      A                      A
 Frequencies --    993.2184              1031.3447              1129.8847
 Red. masses --      1.3716                 7.9536                 4.5747
 Frc consts  --      0.7972                 4.9845                 3.4409
 IR Inten    --      0.0007                65.4736                 7.9261

                     22                     23                     24
                      A                      A                      A
 Frequencies --   1155.2061              1210.5907              1243.1620
 Red. masses --      3.4763                12.1950                 9.1440
 Frc consts  --      2.7333                10.5299                 8.3261
 IR Inten    --    310.0965               247.1478               196.7816

                     25                     26                     27
                      A                      A                      A
 Frequencies --   1259.5919              1308.0768              1377.2013
 Red. masses --      6.1389                 2.1430                 3.0469
 Frc consts  --      5.7386                 2.1604                 3.4049
 IR Inten    --     10.6139                17.8097               204.7162

                     28                     29                     30
                      A                      A                      A
 Frequencies --   1408.8116              1484.9996              1597.1114
 Red. masses --      2.6018                 3.6034                 8.1058
 Frc consts  --      3.0425                 4.6818                12.1819
 IR Inten    --     21.0309                 2.8467                43.0332

                     31                     32                     33
                      A                      A                      A
 Frequencies --   1608.4864              3196.3130              3197.2485
 Red. masses --      6.1988                 1.0927                 1.0935
 Frc consts  --      9.4492                 6.5774                 6.5862
 IR Inten    --      0.0840                 3.2301                 3.7009

 - Thermochemistry -
 -------------------
 Temperature   298.150 Kelvin.  Pressure   1.00000 Atm.
 Atom     1 has atomic number  9 and mass  18.99840

 Molecular mass:   225.93534 amu.
 Principal axes and moments of inertia in atomic units:
                           1         2         3
     Eigenvalues --   619.514625906.724436204.65285
           X            1.00000   0.00000  -0.00002
           Y           -0.00000   1.00000   0.00000
           Z            0.00002  -0.00000   1.00000
 This molecule is an asymmetric top.
 Rotational symmetry number  1.
 Warning -- assumption of classical behavior for rotation
           may cause significant error
 Rotational temperatures (Kelvin)      0.13981     0.01466     0.01396
 Rotational constants (GHZ):           2.91315     0.30554     0.29087
    1 imaginary frequencies ignored.
 Zero-point vibrational energy     187728.0 (Joules/Mol)
                                   44.86808 (Kcal/Mol)
 Warning -- explicit consideration of  12 degrees of freedom as
           vibrations may cause significant error
 Vibrational temperatures:     90.02   208.62   298.94   338.45   386.11
          (Kelvin)            535.24   583.38   602.92   632.41   703.43
                              828.22   846.30   931.31  1042.75  1173.31
                             1195.89  1378.27  1429.02  1483.88  1625.65
                             1662.08  1741.77  1788.63  1812.27  1882.03
                             1981.49  2026.97  2136.58  2297.89  2314.25
                             4598.78  4600.13

 Zero-point correction=                           0.071502 (Hartree/Particle)
 Thermal correction to Energy=                    0.079711
 Thermal correction to Enthalpy=                  0.080655
 Thermal correction to Gibbs Free Energy=         0.036337
 Sum of electronic and zero-point Energies=          -3172.413243
 Sum of electronic and thermal Energies=             -3172.405034
 Sum of electronic and thermal Enthalpies=           -3172.404090
 Sum of electronic and thermal Free Energies=        -3172.448408

                     E (Thermal)             CV                S
                      KCal/Mol        Cal/Mol-Kelvin    Cal/Mol-Kelvin
 Total                   50.020             30.083             93.275
 Electronic               0.000              0.000              0.000
 Translational            0.889              2.981             42.148
 Rotational               0.889              2.981             31.496
 Vibrational             48.242             24.121             19.631
 Vibration     1          0.597              1.972              4.375
 Vibration     2          0.616              1.908              2.737
 Vibration     3          0.641              1.829              2.063
 Vibration     4          0.655              1.787              1.839
 Vibration     5          0.673              1.731              1.607
 Vibration     6          0.744              1.530              1.071
 Vibration     7          0.770              1.458              0.943
 Vibration     8          0.782              1.429              0.895
 Vibration     9          0.800              1.384              0.828
 Vibration    10          0.845              1.275              0.686
 Vibration    11          0.932              1.084              0.493
 Vibration    12          0.945              1.057              0.470

                           ! Non-Optimized Parameters !
 Normal termination of Gaussian 16 at Tue Sep 17 09:50:16 2024.

 ----------------------------------------------------------------------
 #p M062X/def2tzvp geom=check guess=read scf(xqc,tight) integral(grid=u
 ltrafine) scrf(SMD, solvent=1,4-Dioxane) polar prop=efg volume
 ----------------------------------------------------------------------

 ---
 spe
 ---
 Structure from the checkpoint file:  "smiles_00116_conf_0.chk"
 Charge =  0 Multiplicity = 1

 SCF Done:  E(RM062X) =  -3174.99574034     A.U. after   12 cycles

  Exact polarizability:     146.319      -0.000      96.575       0.368      -0.000      61.790
 Approx polarizability:     149.580      -0.001     119.587       0.649      -0.000      76.590

 Normal termination of Gaussian 16 at Tue Sep 17 10:14:32 2024.
 Gaussian 16:  ES64L-G16RevC.02  7-Dec-2021

 ----------------------------------------------------------------------
 #p M062X/def2tzvp geom=check guess=read scf(xqc,tight) integral(grid=u
 ltrafine) scrf(SMD, solvent=1,4-Dioxane) nmr=giao
 ----------------------------------------------------------------------

 ---
 spe
 ---
 Structure from the checkpoint file:  "smiles_00116_conf_0.chk"
 Charge =  0 Multiplicity = 1

                         Standard orientation:
 ---------------------------------------------------------------------
 Center     Atomic      Atomic             Coordinates (Angstroms)
 Number     Number       Type             X           Y           Z
 ---------------------------------------------------------------------
      1          9           0       -3.392741    1.087853   -0.607159
      2          6           0       -2.892708    0.000013   -0.002686
      3          9           0       -3.325999   -0.001256    1.276062
      4          9           0       -3.392606   -1.086751   -0.609246
      5          6           0       -1.369062    0.000084   -0.035059
      6          7           0       -0.777651    1.195014   -0.023179
      7          6           0        0.557206    1.193450   -0.010601
      8          6           0        1.278185    0.000023   -0.007230
      9         35           0        3.170869   -0.000022    0.005406
     10          6           0        0.557152   -1.193379   -0.010604
     11          7           0       -0.777696   -1.194879   -0.023185
     12          1           0        1.062292    2.155243   -0.002238
     13          1           0        1.062197   -2.155194   -0.002241
 ---------------------------------------------------------------------

 SCF Done:  E(RM062X) =  -3174.99574034     A.U. after    1 cycles

      1  F    Isotropic =   255.2753   Anisotropy =   134.4518

      2  C    Isotropic =    55.1230   Anisotropy =    19.4491

      3  F    Isotropic =   237.9970   Anisotropy =   148.7390

      4  F    Isotropic =   255.2412   Anisotropy =   134.5156

      5  C    Isotropic =     4.5553   Anisotropy =   173.3998

      6  N    Isotropic =  -114.0367   Anisotropy =   583.1051

      7  C    Isotropic =     0.0778   Anisotropy =   201.9074

      8  C    Isotropic =    23.6143   Anisotropy =   156.3811

      9  Br   Isotropic =  2134.8903   Anisotropy =  1133.2747

     10  C    Isotropic =     0.0740   Anisotropy =   201.9140

     11  N    Isotropic =  -114.0466   Anisotropy =   583.1141

     12  H    Isotropic =    22.0958   Anisotropy =    11.4093

     13  H    Isotropic =    22.0956   Anisotropy =    11.4091

 The electronic state is 1-A.
 Alpha  occ. eigenvalues -- -485.40431 -63.38902 -57.20858 -57.20606 -57.20598
 Alpha  occ. eigenvalues --  -25.28702 -25.28701 -25.28674 -14.79653 -14.79652
 Alpha  occ. eigenvalues --  -10.80960 -10.65620 -10.63750 -10.62881 -10.62877
 Alpha  occ. eigenvalues --   -9.05551  -6.87995  -6.87061  -6.87035  -2.91373
 Alpha  occ. eigenvalues --   -2.91035  -2.91006  -2.90136  -2.90136  -1.47048
 Alpha  occ. eigenvalues --   -1.38124  -1.37953  -1.14098  -1.03443  -0.96766
 Alpha  occ. eigenvalues --   -0.89185  -0.82663  -0.78765  -0.75815  -0.69939
 Alpha  occ. eigenvalues --   -0.69775  -0.69424  -0.62931  -0.59347  -0.58221
 Alpha  occ. eigenvalues --   -0.57845  -0.55058  -0.54214  -0.53118  -0.52203
 Alpha  occ. eigenvalues --   -0.51855  -0.51764  -0.48609  -0.42772  -0.41298
 Alpha  occ. eigenvalues --   -0.41238  -0.38660  -0.35249  -0.33964
 Alpha virt. eigenvalues --   -0.04180  -0.03795   0.01616   0.09043   0.11005
 Alpha virt. eigenvalues --    0.11298   0.12193   0.14938   0.15882   0.16507
 Alpha virt. eigenvalues --    0.20857   0.20895   0.21221   0.21837   0.22005

 Mulliken charges:
               1
     1  F   -0.167539
     2  C    0.517626
     3  F   -0.176239
     4  F   -0.167565
     5  C    0.148835
     6  N   -0.235124
     7  C   -0.029564
     8  C    0.027780
     9  Br  -0.047224
    10  C   -0.029565
    11  N   -0.235158
    12  H    0.196869
    13  H    0.196869
 Sum of Mulliken charges =  -0.00000

 Dipole moment (field-independent basis, Debye):
    X=              4.1039    Y=              0.0003    Z=             -0.0881  Tot=              4.1048
 Quadrupole moment (field-independent basis, Debye-Ang):
   XX=            -79.9113   YY=            -72.5128   ZZ=            -73.6236
   XY=             -0.0009   XZ=              0.2419   YZ=              0.0000

 Normal termination of Gaussian 16 at Tue Sep 17 10:23:45 2024.
