 Gaussian 16, Revision C.02,

 ----------------------------------------------------------------------
 #p B3LYP/6-31G(d,p) EmpiricalDispersion=GD3BJ opt freq scf(xqc,tight)
 integral(grid=ultrafine)
 ----------------------------------------------------------------------

 ----------------------------------
 opt-freq conformers_unique/conf_aa
 ----------------------------------
 Symbolic Z-matrix:
 Charge =  0 Multiplicity = 1

 SCF Done:  E(RB3LYP) =  -2921.36662107     A.U. after   14 cycles
 SCF Done:  E(RB3LYP) =  -2921.36785039     A.U. after   10 cycles
 SCF Done:  E(RB3LYP) =  -2921.36788693     A.U. after    8 cycles
 Optimization completed.
    -- Stationary point found.
 Normal termination of Gaussian 16 at Tue Sep 17 09:55:22 2024.

 ----------------------------------------------------------------------
 #P Geom=AllCheck Guess=TCheck SCRF=Check GenChk RB3LYP/6-31G(d,p) Freq
 ----------------------------------------------------------------------

 Structure from the checkpoint file:  "smiles_00020_conf_0.chk"
 ----------------------------------
 opt-freq conformers_unique/conf_aa
 ----------------------------------
 Charge =  0 Multiplicity = 1

 SCF Done:  E(RB3LYP) =  -2921.36788693     A.U. after    1 cycles

                      1                      2                      3
                      A                      A                      A
 Frequencies --     32.4364                87.0281               163.1301
 Red. masses --      1.0173                 4.0997                 1.2972
 Frc consts  --      0.0006                 0.0183                 0.0203
 IR Inten    --      0.2293                 0.0274                 2.2996

                      4                      5                      6
                      A                      A                      A
 Frequencies --    165.8315               180.8225               206.3943
 Red. masses --      1.0638                 1.8093                 5.3774
 Frc consts  --      0.0172                 0.0349                 0.1350
 IR Inten    --      0.0014                 1.5682                 0.0782

                      7                      8                      9
                      A                      A                      A
 Frequencies --    235.6105               253.3911               279.2234
 Red. masses --      2.6909                 5.3120                 2.5057
 Frc consts  --      0.0880                 0.2010                 0.1151
 IR Inten    --      0.0003                 2.6494                 0.2641

                     10                     11                     12
                      A                      A                      A
 Frequencies --    312.5379               340.3159               502.5733
 Red. masses --      4.5439                 3.3704                 2.9360
 Frc consts  --      0.2615                 0.2300                 0.4369
 IR Inten    --      0.2499                 0.1517                 0.2991

                     13                     14                     15
                      A                      A                      A
 Frequencies --    531.9939               549.1304               564.9656
 Red. masses --      3.1451                 4.7099                 3.3393
 Frc consts  --      0.5244                 0.8368                 0.6280
 IR Inten    --      0.0193                 1.0827                 1.2460

                     16                     17                     18
                      A                      A                      A
 Frequencies --    577.2019               597.5854               739.1994
 Red. masses --      4.5751                 4.6330                 3.4412
 Frc consts  --      0.8981                 0.9748                 1.1079
 IR Inten    --      4.5363                 2.8298                 1.2331

                     19                     20                     21
                      A                      A                      A
 Frequencies --    876.9191               899.5550               954.1002
 Red. masses --      1.2810                 1.3014                 2.4776
 Frc consts  --      0.5804                 0.6205                 1.3288
 IR Inten    --     11.5178                 0.0022                 0.7816

                     22                     23                     24
                      A                      A                      A
 Frequencies --    973.9005              1038.7573              1040.3171
 Red. masses --      3.1247                 1.8792                 4.1294
 Frc consts  --      1.7462                 1.1946                 2.6331
 IR Inten    --      6.7209                 0.1630                50.8770

                     25                     26                     27
                      A                      A                      A
 Frequencies --   1041.2968              1061.8041              1065.2900
 Red. masses --      1.5949                 1.7607                 1.5232
 Frc consts  --      1.0189                 1.1696                 1.0184
 IR Inten    --      3.4020                 0.5928                 5.2324

                     28                     29                     30
                      A                      A                      A
 Frequencies --   1067.4747              1067.9206              1206.4333
 Red. masses --      1.5086                 1.5747                 1.4117
 Frc consts  --      1.0129                 1.0581                 1.2106
 IR Inten    --      0.0353                14.8819                 4.2563

                     31                     32                     33
                      A                      A                      A
 Frequencies --   1281.5239              1337.5763              1338.3400
 Red. masses --      1.4006                 5.9955                 5.8592
 Frc consts  --      1.3552                 6.3199                 6.1833
 IR Inten    --      0.1950                 0.5444                 0.6091

                     34                     35                     36
                      A                      A                      A
 Frequencies --   1425.5019              1427.2577              1431.7493
 Red. masses --      1.2451                 1.2315                 1.3285
 Frc consts  --      1.4907                 1.4781                 1.6046
 IR Inten    --      0.0068                 0.8340                 0.4915

                     37                     38                     39
                      A                      A                      A
 Frequencies --   1450.9409              1456.9114              1495.1015
 Red. masses --      2.4568                 2.1006                 1.0440
 Frc consts  --      3.0474                 2.6270                 1.3750
 IR Inten    --      0.1969                 7.0792                14.6387

                     40                     41                     42
                      A                      A                      A
 Frequencies --   1495.9894              1502.2730              1502.7281
 Red. masses --      1.0435                 1.0507                 1.0544
 Frc consts  --      1.3760                 1.3971                 1.4029
 IR Inten    --      0.0001                 4.7928                 2.1189

                     43                     44                     45
                      A                      A                      A
 Frequencies --   1514.5412              1520.2286              1637.2672
 Red. masses --      1.2698                 1.3576                 7.4720
 Frc consts  --      1.7161                 1.8486                11.8012
 IR Inten    --     26.0971                33.6328                 6.4590

                     46                     47                     48
                      A                      A                      A
 Frequencies --   1652.4574              3039.4792              3048.1817
 Red. masses --      5.3897                 1.0400                 1.0362
 Frc consts  --      8.6711                 5.6611                 5.6723
 IR Inten    --      1.9062                33.3407                30.7559

                     49                     50                     51
                      A                      A                      A
 Frequencies --   3048.7559              3100.8267              3107.6627
 Red. masses --      1.0362                 1.0961                 1.1006
 Frc consts  --      5.6746                 6.2098                 6.2623
 IR Inten    --      4.1526                19.5146                13.3138

                     52                     53                     54
                      A                      A                      A
 Frequencies --   3107.6806              3128.6613              3135.6653
 Red. masses --      1.1006                 1.1030                 1.1030
 Frc consts  --      6.2624                 6.3614                 6.3896
 IR Inten    --      9.2701                14.2157                19.3962

                     55                     56                     57
                      A                      A                      A
 Frequencies --   3136.2395              3173.5380              3175.1744
 Red. masses --      1.1028                 1.0899                 1.0904
 Frc consts  --      6.3909                 6.4675                 6.4770
 IR Inten    --     13.8364                24.1556                11.2646

 - Thermochemistry -
 -------------------
 Temperature   298.150 Kelvin.  Pressure   1.00000 Atm.
 Atom     1 has atomic number  6 and mass  12.00000

 Molecular mass:   198.00441 amu.
 Principal axes and moments of inertia in atomic units:
                           1         2         3
     Eigenvalues --  1042.604922873.933973883.08178
           X            1.00000  -0.00002   0.00049
           Y            0.00002   1.00000   0.00000
           Z           -0.00049  -0.00000   1.00000
 This molecule is an asymmetric top.
 Rotational symmetry number  1.
 Warning -- assumption of classical behavior for rotation
           may cause significant error
 Rotational temperatures (Kelvin)      0.08307     0.03014     0.02231
 Rotational constants (GHZ):           1.73099     0.62797     0.46477
 Zero-point vibrational energy     456288.0 (Joules/Mol)
                                  109.05545 (Kcal/Mol)
 Warning -- explicit consideration of  17 degrees of freedom as
           vibrations may cause significant error
 Vibrational temperatures:     46.67   125.21   234.71   238.59   260.16
          (Kelvin)            296.96   338.99   364.57   401.74   449.67
                              489.64   723.09   765.42   790.08   812.86
                              830.46   859.79  1063.54  1261.69  1294.26
                             1372.74  1401.23  1494.54  1496.78  1498.19
                             1527.70  1532.71  1535.86  1536.50  1735.79
                             1843.83  1924.47  1925.57  2050.98  2053.51
                             2059.97  2087.58  2096.17  2151.12  2152.40
                             2161.44  2162.09  2179.09  2187.27  2355.66
                             2377.52  4373.13  4385.65  4386.48  4461.40
                             4471.23  4471.26  4501.45  4511.52  4512.35
                             4566.01  4568.37

 Zero-point correction=                           0.173791 (Hartree/Particle)
 Thermal correction to Energy=                    0.184593
 Thermal correction to Enthalpy=                  0.185538
 Thermal correction to Gibbs Free Energy=         0.136205
 Sum of electronic and zero-point Energies=          -2921.194096
 Sum of electronic and thermal Energies=             -2921.183293
 Sum of electronic and thermal Enthalpies=           -2921.182349
 Sum of electronic and thermal Free Energies=        -2921.231682

                     E (Thermal)             CV                S
                      KCal/Mol        Cal/Mol-Kelvin    Cal/Mol-Kelvin
 Total                  115.834             39.152            103.829
 Electronic               0.000              0.000              0.000
 Translational            0.889              2.981             41.754
 Rotational               0.889              2.981             30.832
 Vibrational            114.057             33.190             31.243
 Vibration     1          0.594              1.983              5.675
 Vibration     2          0.601              1.958              3.726
 Vibration     3          0.623              1.888              2.513
 Vibration     4          0.624              1.884              2.482
 Vibration     5          0.630              1.866              2.320
 Vibration     6          0.641              1.831              2.075
 Vibration     7          0.655              1.786              1.836
 Vibration     8          0.665              1.757              1.707
 Vibration     9          0.680              1.712              1.538
 Vibration    10          0.701              1.650              1.349
 Vibration    11          0.720              1.595              1.211
 Vibration    12          0.858              1.244              0.652
 Vibration    13          0.887              1.179              0.583
 Vibration    14          0.904              1.142              0.546
 Vibration    15          0.921              1.107              0.514
 Vibration    16          0.934              1.081              0.491
 Vibration    17          0.956              1.037              0.454

                           ! Non-Optimized Parameters !
 Normal termination of Gaussian 16 at Tue Sep 17 09:56:29 2024.

 ----------------------------------------------------------------------
 #p M062X/def2tzvp geom=check guess=read scf(xqc,tight) integral(grid=u
 ltrafine) scrf(SMD, solvent=1,4-Dioxane) polar prop=efg volume
 ----------------------------------------------------------------------

 ---
 spe
 ---
 Structure from the checkpoint file:  "smiles_00020_conf_0.chk"
 Charge =  0 Multiplicity = 1

 SCF Done:  E(RM062X) =  -2923.76297303     A.U. after   12 cycles

  Exact polarizability:     191.055      -0.044     157.937       0.516       0.003      88.715
 Approx polarizability:     195.138      -0.048     169.272       0.375       0.001     110.211

 1\1\GINC-HPC-35-29\SP\RM062X\def2TZVP\C9H11Br1\MANTIND\17-Sep-2024\0\\
 #p M062X/def2tzvp geom=check guess=read scf(xqc,tight) integral(grid=u
 ltrafine) scrf(SMD, solvent=1,4-Dioxane) polar prop=efg volume\\spe\\0
 ,1\C,0,-4.2163307999,-0.0001643251,-0.0168300923\C,0,-2.7074464271,0.0
 002866896,0.0091036907\C,0,-1.991042654,-1.1988866397,0.0083878671\C,0
 ,-0.5930733618,-1.2298312368,0.0013381954\C,0,0.1480600075,-2.53988066
 99,0.002382289\C,0,0.0754181708,0.0000662175,-0.0029642559\Br,0,1.9953
 963429,-0.000138149,-0.0081477677\C,0,-0.5927879737,1.2299203358,0.001

 Normal termination of Gaussian 16 at Tue Sep 17 10:23:39 2024.
 Gaussian 16:  ES64L-G16RevC.02  7-Dec-2021

 ----------------------------------------------------------------------
 #p M062X/def2tzvp geom=check guess=read scf(xqc,tight) integral(grid=u
 ltrafine) scrf(SMD, solvent=1,4-Dioxane) nmr=giao
 ----------------------------------------------------------------------

 ---
 spe
 ---
 Structure from the checkpoint file:  "smiles_00020_conf_0.chk"
 Charge =  0 Multiplicity = 1

                         Standard orientation:
 ---------------------------------------------------------------------
 Center     Atomic      Atomic             Coordinates (Angstroms)
 Number     Number       Type             X           Y           Z
 ---------------------------------------------------------------------
      1          6           0        4.043414   -0.000066    0.016587
      2          6           0        2.534544    0.000358   -0.010184
      3          6           0        1.818162   -1.198829   -0.009865
      4          6           0        0.420190   -1.229799   -0.003591
      5          6           0       -0.320919   -2.539862   -0.005046
      6          6           0       -0.248326    0.000086    0.000340
      7         35           0       -2.168307   -0.000154    0.004458
      8          6           0        0.419859    1.229953   -0.003632
      9          6           0       -0.321381    2.539939   -0.005047
     10          6           0        1.818019    1.199234   -0.009867
     11          1           0        4.418901   -0.020509    1.046980
     12          1           0        4.450739   -0.876079   -0.496077
     13          1           0        4.450634    0.895195   -0.461497
     14          1           0        2.357545   -2.142582   -0.015859
     15          1           0       -0.968577   -2.626098    0.873447
     16          1           0        0.376985   -3.380179   -0.007063
     17          1           0       -0.970485   -2.623481   -0.882417
     18          1           0        0.376429    3.380330   -0.008368
     19          1           0       -0.968006    2.626657    0.874175
     20          1           0       -0.971992    2.622958   -0.881688
     21          1           0        2.357196    2.143077   -0.015830
 ---------------------------------------------------------------------

 SCF Done:  E(RM062X) =  -2923.76297303     A.U. after    1 cycles

      1  C    Isotropic =   164.3573   Anisotropy =    40.6979

      2  C    Isotropic =    23.2188   Anisotropy =   225.8267

      3  C    Isotropic =    34.5112   Anisotropy =   163.3190

      4  C    Isotropic =    22.0904   Anisotropy =   210.3418

      5  C    Isotropic =   160.8100   Anisotropy =    31.9390

      6  C    Isotropic =    25.9799   Anisotropy =   103.2954

      7  Br   Isotropic =  2230.6076   Anisotropy =   745.2844

      8  C    Isotropic =    22.0825   Anisotropy =   210.3244

      9  C    Isotropic =   160.8144   Anisotropy =    31.9350

     10  C    Isotropic =    34.5141   Anisotropy =   162.6531

     11  H    Isotropic =    29.3274   Anisotropy =     8.6238

     12  H    Isotropic =    29.5652   Anisotropy =     7.8788

     13  H    Isotropic =    29.5889   Anisotropy =     7.8506

     14  H    Isotropic =    24.0292   Anisotropy =     9.6862

     15  H    Isotropic =    29.3178   Anisotropy =     6.8066

     16  H    Isotropic =    29.6260   Anisotropy =     9.1067

     17  H    Isotropic =    29.3184   Anisotropy =     6.8077

     18  H    Isotropic =    29.6262   Anisotropy =     9.1043

     19  H    Isotropic =    29.3191   Anisotropy =     6.8146

     20  H    Isotropic =    29.3184   Anisotropy =     6.8011

     21  H    Isotropic =    24.0351   Anisotropy =     9.6551

 The electronic state is 1-A.
 Alpha  occ. eigenvalues -- -485.36903 -63.35378 -57.17317 -57.17097 -57.17081
 Alpha  occ. eigenvalues --  -10.59076 -10.55942 -10.55940 -10.55162 -10.53839
 Alpha  occ. eigenvalues --  -10.53835 -10.53079 -10.53079 -10.53069  -9.02011
 Alpha  occ. eigenvalues --   -6.84391  -6.83576  -6.83523  -2.87769  -2.87483
 Alpha  occ. eigenvalues --   -2.87427  -2.86667  -2.86666  -0.97999  -0.90385
 Alpha  occ. eigenvalues --   -0.88588  -0.84591  -0.79424  -0.77151  -0.75462
 Alpha  occ. eigenvalues --   -0.66268  -0.64481  -0.55943  -0.55486  -0.50405
 Alpha  occ. eigenvalues --   -0.49780  -0.47897  -0.47778  -0.47053  -0.46609
 Alpha  occ. eigenvalues --   -0.45982  -0.45407  -0.42974  -0.41129  -0.40187
 Alpha  occ. eigenvalues --   -0.39015  -0.36701  -0.34259  -0.29738  -0.28255
 Alpha virt. eigenvalues --    0.01736   0.02169   0.04552   0.07684   0.09209
 Alpha virt. eigenvalues --    0.09707   0.11409   0.12077   0.14035   0.14895
 Alpha virt. eigenvalues --    0.15731   0.15802   0.16525   0.17678   0.17789

 Mulliken charges:
               1
     1  C   -0.495789
     2  C    0.127219
     3  C   -0.244558
     4  C    0.153885
     5  C   -0.490693
     6  C   -0.131316
     7  Br  -0.126822
     8  C    0.153185
     9  C   -0.490803
    10  C   -0.245099
    11  H    0.168791
    12  H    0.156522
    13  H    0.155829
    14  H    0.161806
    15  H    0.172845
    16  H    0.147227
    17  H    0.172968
    18  H    0.147251
    19  H    0.172878
    20  H    0.172937
    21  H    0.161740
 Sum of Mulliken charges =  -0.00000

 Dipole moment (field-independent basis, Debye):
    X=              2.1162    Y=             -0.0023    Z=              0.0391  Tot=              2.1166
 Quadrupole moment (field-independent basis, Debye-Ang):
   XX=            -69.3962   YY=            -66.2302   ZZ=            -76.4663
   XY=             -0.0095   XZ=              0.1540   YZ=              0.0005

 1\1\GINC-HPC-35-29\SP\RM062X\def2TZVP\C9H11Br1\MANTIND\17-Sep-2024\0\\
 #p M062X/def2tzvp geom=check guess=read scf(xqc,tight) integral(grid=u
 ltrafine) scrf(SMD, solvent=1,4-Dioxane) nmr=giao\\spe\\0,1\C,0,-4.216
 3307999,-0.0001643251,-0.0168300923\C,0,-2.7074464271,0.0002866896,0.0
 091036907\C,0,-1.991042654,-1.1988866397,0.0083878671\C,0,-0.593073361
 8,-1.2298312368,0.0013381954\C,0,0.1480600075,-2.5398806699,0.00238228
 9\C,0,0.0754181708,0.0000662175,-0.0029642559\Br,0,1.9953963429,-0.000
 138149,-0.0081477677\C,0,-0.5927879737,1.2299203358,0.001377532\C,0,0.

 Normal termination of Gaussian 16 at Tue Sep 17 10:33:30 2024.
