 Gaussian 16, Revision C.02,

 ----------------------------------------------------------------------
 #p B3LYP/6-31G(d,p) EmpiricalDispersion=GD3BJ opt freq scf(xqc,tight)
 integral(grid=ultrafine)
 ----------------------------------------------------------------------

 ----------------------------------
 opt-freq conformers_unique/conf_aa
 ----------------------------------
 Symbolic Z-matrix:
 Charge =  0 Multiplicity = 1

 SCF Done:  E(RB3LYP) =  -2973.08003664     A.U. after   15 cycles
 SCF Done:  E(RB3LYP) =  -2973.08168810     A.U. after   12 cycles
 SCF Done:  E(RB3LYP) =  -2973.08177130     A.U. after   11 cycles
 SCF Done:  E(RB3LYP) =  -2973.08177428     A.U. after    8 cycles
 Optimization completed.
    -- Stationary point found.
 Normal termination of Gaussian 16 at Tue Sep 17 09:42:34 2024.

 ----------------------------------------------------------------------
 #P Geom=AllCheck Guess=TCheck SCRF=Check GenChk RB3LYP/6-31G(d,p) Freq
 ----------------------------------------------------------------------

 Structure from the checkpoint file:  "smiles_00100_conf_0.chk"
 ----------------------------------
 opt-freq conformers_unique/conf_aa
 ----------------------------------
 Charge =  0 Multiplicity = 1

 SCF Done:  E(RB3LYP) =  -2973.08177428     A.U. after    1 cycles

                      1                      2                      3
                      A                      A                      A
 Frequencies --    107.3370               164.6531               176.7910
 Red. masses --      5.7394                 9.9954                 4.2434
 Frc consts  --      0.0390                 0.1597                 0.0781
 IR Inten    --      1.2427                 0.7638                 3.1121

                      4                      5                      6
                      A                      A                      A
 Frequencies --    232.8824               306.2127               424.2670
 Red. masses --      4.0867                10.8347                 4.2286
 Frc consts  --      0.1306                 0.5986                 0.4485
 IR Inten    --      0.8253                 1.1673                 0.0011

                      7                      8                      9
                      A                      A                      A
 Frequencies --    434.3665               483.7732               538.1417
 Red. masses --      4.5766                 3.2077                 7.1918
 Frc consts  --      0.5087                 0.4423                 1.2271
 IR Inten    --      2.5533                 0.2927                 0.1314

                     10                     11                     12
                      A                      A                      A
 Frequencies --    549.0092               565.9122               649.6557
 Red. masses --      7.7187                 3.8128                 3.3435
 Frc consts  --      1.3707                 0.7194                 0.8314
 IR Inten    --      0.9338                 0.4896                 0.3693

                     13                     14                     15
                      A                      A                      A
 Frequencies --    659.5092               775.1685               818.3577
 Red. masses --      7.7121                 1.2300                 1.5175
 Frc consts  --      1.9764                 0.4355                 0.5988
 IR Inten    --     24.8970                 7.1377                55.2366

                     16                     17                     18
                      A                      A                      A
 Frequencies --    823.3812               839.2174               863.5959
 Red. masses --      5.5637                 6.3894                 4.0637
 Frc consts  --      2.2224                 2.6513                 1.7857
 IR Inten    --      5.1815                 4.1688                 6.5938

                     19                     20                     21
                      A                      A                      A
 Frequencies --    929.7802               971.0676               977.1624
 Red. masses --      1.3609                 1.4079                 6.3223
 Frc consts  --      0.6931                 0.7822                 3.5568
 IR Inten    --      0.0186                 0.1554                45.7772

                     22                     23                     24
                      A                      A                      A
 Frequencies --    990.5584              1000.5889              1061.5282
 Red. masses --      1.3412                 1.3505                 2.5856
 Frc consts  --      0.7754                 0.7966                 1.7166
 IR Inten    --      0.2938                 1.3915                 1.1425

                     25                     26                     27
                      A                      A                      A
 Frequencies --   1093.8841              1158.5109              1176.9666
 Red. masses --      2.0583                 1.4091                 1.3113
 Frc consts  --      1.4511                 1.1142                 1.0702
 IR Inten    --      6.2357                 0.4044                 3.0328

                     28                     29                     30
                      A                      A                      A
 Frequencies --   1233.5480              1249.4560              1278.8527
 Red. masses --      1.7523                 2.2904                 1.8009
 Frc consts  --      1.5710                 2.1067                 1.7353
 IR Inten    --     12.7973                 0.9164                 0.5723

                     31                     32                     33
                      A                      A                      A
 Frequencies --   1359.7385              1395.3540              1422.0658
 Red. masses --      3.8286                 4.4416                 1.9951
 Frc consts  --      4.1706                 5.0952                 2.3772
 IR Inten    --      9.6099                10.0344                18.7418

                     34                     35                     36
                      A                      A                      A
 Frequencies --   1467.1381              1501.6778              1541.9024
 Red. masses --      2.0953                 2.8127                 3.6276
 Frc consts  --      2.6573                 3.7371                 5.0813
 IR Inten    --      1.4535                19.1990                35.5692

                     37                     38                     39
                      A                      A                      A
 Frequencies --   1606.1837              1654.9178              1666.6853
 Red. masses --      7.0595                 5.4522                 6.5363
 Frc consts  --     10.7303                 8.7978                10.6977
 IR Inten    --      2.0561                12.3476                10.0285

                     40                     41                     42
                      A                      A                      A
 Frequencies --   3160.2748              3184.5222              3187.0114
 Red. masses --      1.0897                 1.0887                 1.0880
 Frc consts  --      6.4120                 6.5053                 6.5107
 IR Inten    --     25.2111                 1.8241                 8.0142

                     43                     44                     45
                      A                      A                      A
 Frequencies --   3204.9020              3213.0548              3222.9743
 Red. masses --      1.0935                 1.0965                 1.0944
 Frc consts  --      6.6178                 6.6694                 6.6977
 IR Inten    --     17.6544                18.8022                 3.8141

 - Thermochemistry -
 -------------------
 Temperature   298.150 Kelvin.  Pressure   1.00000 Atm.
 Atom     1 has atomic number 35 and mass  78.91834

 Molecular mass:   206.96836 amu.
 Principal axes and moments of inertia in atomic units:
                           1         2         3
     Eigenvalues --  1274.740012871.186294145.92630
           X            0.99934  -0.03630   0.00009
           Y            0.03630   0.99934  -0.00002
           Z           -0.00008   0.00002   1.00000
 This molecule is an asymmetric top.
 Rotational symmetry number  1.
 Warning -- assumption of classical behavior for rotation
           may cause significant error
 Rotational temperatures (Kelvin)      0.06795     0.03017     0.02089
 Rotational constants (GHZ):           1.41577     0.62857     0.43530
 Zero-point vibrational energy     330902.3 (Joules/Mol)
                                   79.08754 (Kcal/Mol)
 Warning -- explicit consideration of  11 degrees of freedom as
           vibrations may cause significant error
 Vibrational temperatures:    154.43   236.90   254.36   335.07   440.57
          (Kelvin)            610.43   624.96   696.04   774.27   789.90
                              814.22   934.71   948.89  1115.29  1177.43
                             1184.66  1207.45  1242.52  1337.75  1397.15
                             1405.92  1425.19  1439.62  1527.30  1573.86
                             1666.84  1693.39  1774.80  1797.69  1839.98
                             1956.36  2007.60  2046.04  2110.88  2160.58
                             2218.45  2310.94  2381.06  2397.99  4546.93
                             4581.82  4585.40  4611.14  4622.87  4637.14

 Zero-point correction=                           0.126034 (Hartree/Particle)
 Thermal correction to Energy=                    0.134104
 Thermal correction to Enthalpy=                  0.135048
 Thermal correction to Gibbs Free Energy=         0.091769
 Sum of electronic and zero-point Energies=          -2972.955740
 Sum of electronic and thermal Energies=             -2972.947670
 Sum of electronic and thermal Enthalpies=           -2972.946726
 Sum of electronic and thermal Free Energies=        -2972.990005

                     E (Thermal)             CV                S
                      KCal/Mol        Cal/Mol-Kelvin    Cal/Mol-Kelvin
 Total                   84.151             31.825             91.088
 Electronic               0.000              0.000              0.000
 Translational            0.889              2.981             41.886
 Rotational               0.889              2.981             31.096
 Vibrational             82.374             25.863             18.106
 Vibration     1          0.606              1.943              3.317
 Vibration     2          0.623              1.886              2.496
 Vibration     3          0.628              1.871              2.362
 Vibration     4          0.654              1.791              1.857
 Vibration     5          0.697              1.662              1.383
 Vibration     6          0.786              1.417              0.878
 Vibration     7          0.795              1.395              0.845
 Vibration     8          0.840              1.286              0.700
 Vibration     9          0.893              1.166              0.569
 Vibration    10          0.904              1.142              0.546
 Vibration    11          0.922              1.105              0.512

 Optimization completed.
    -- Stationary point found.
 Normal termination of Gaussian 16 at Tue Sep 17 09:43:54 2024.

 ----------------------------------------------------------------------
 #p M062X/def2tzvp geom=check guess=read scf(xqc,tight) integral(grid=u
 ltrafine) scrf(SMD, solvent=1,4-Dioxane) polar prop=efg volume
 ----------------------------------------------------------------------

 ---
 spe
 ---
 Structure from the checkpoint file:  "smiles_00100_conf_0.chk"
 Charge =  0 Multiplicity = 1

 SCF Done:  E(RM062X) =  -2975.50566304     A.U. after   13 cycles

  Exact polarizability:     194.852     -12.328     190.288      -0.011       0.003      75.875
 Approx polarizability:     210.326      -9.210     218.948      -0.011       0.003      96.975

 Normal termination of Gaussian 16 at Tue Sep 17 10:20:22 2024.
 Gaussian 16:  ES64L-G16RevC.02  7-Dec-2021

 ----------------------------------------------------------------------
 #p M062X/def2tzvp geom=check guess=read scf(xqc,tight) integral(grid=u
 ltrafine) scrf(SMD, solvent=1,4-Dioxane) nmr=giao
 ----------------------------------------------------------------------

 ---
 spe
 ---
 Structure from the checkpoint file:  "smiles_00100_conf_0.chk"
 Charge =  0 Multiplicity = 1

                         Standard orientation:
 ---------------------------------------------------------------------
 Center     Atomic      Atomic             Coordinates (Angstroms)
 Number     Number       Type             X           Y           Z
 ---------------------------------------------------------------------
      1         35           0       -2.288114   -0.500317    0.000177
      2          6           0       -0.680252    0.513840    0.000085
      3          6           0       -0.749658    1.887703    0.000110
      4          6           0        0.434356    2.660826    0.000020
      5          6           0        1.666571    2.051434   -0.000105
      6          6           0        1.762101    0.637295   -0.000142
      7          6           0        3.004096   -0.046281   -0.000284
      8          6           0        3.023379   -1.419257   -0.000296
      9          6           0        1.787872   -2.112076   -0.000199
     10          7           0        0.610124   -1.522775   -0.000052
     11          6           0        0.573599   -0.164337   -0.000024
     12          1           0       -1.717254    2.375449    0.000192
     13          1           0        0.356701    3.743219    0.000051
     14          1           0        2.579125    2.640151   -0.000183
     15          1           0        3.924798    0.530540   -0.000370
     16          1           0        3.956162   -1.972927   -0.000392
     17          1           0        1.781212   -3.200808   -0.000140
 ---------------------------------------------------------------------

 SCF Done:  E(RM062X) =  -2975.50566304     A.U. after    1 cycles

      1  Br   Isotropic =  2164.9742   Anisotropy =  1048.2326

      2  C    Isotropic =    21.7436   Anisotropy =   128.8154

      3  C    Isotropic =    29.1833   Anisotropy =   184.5150

      4  C    Isotropic =    37.7909   Anisotropy =   207.5177

      5  C    Isotropic =    35.8455   Anisotropy =   191.1788

      6  C    Isotropic =    33.4439   Anisotropy =   236.8807

      7  C    Isotropic =    24.4660   Anisotropy =   216.8947

      8  C    Isotropic =    42.7206   Anisotropy =   201.5456

      9  C    Isotropic =     9.7191   Anisotropy =   206.0462

     10  N    Isotropic =  -138.8294   Anisotropy =   624.3148

     11  C    Isotropic =    15.8518   Anisotropy =   216.9460

     12  H    Isotropic =    22.9545   Anisotropy =    11.8142

     13  H    Isotropic =    23.5175   Anisotropy =     6.4771

     14  H    Isotropic =    23.1277   Anisotropy =     7.6192

     15  H    Isotropic =    22.6947   Anisotropy =     8.5752

     16  H    Isotropic =    23.5025   Anisotropy =     6.9005

     17  H    Isotropic =    21.8251   Anisotropy =     7.9864

 The electronic state is 1-A.
 Alpha  occ. eigenvalues -- -485.37006 -63.35474 -57.17425 -57.17187 -57.17170
 Alpha  occ. eigenvalues --  -14.75619 -10.60399 -10.59511 -10.58618 -10.56949
 Alpha  occ. eigenvalues --  -10.56824 -10.56078 -10.55773 -10.55685 -10.55653
 Alpha  occ. eigenvalues --   -9.02116  -6.84540  -6.83659  -6.83599  -2.87918
 Alpha  occ. eigenvalues --   -2.87609  -2.87547  -2.86727  -2.86725  -1.06527
 Alpha  occ. eigenvalues --   -0.97050  -0.92687  -0.88279  -0.85897  -0.81573
 Alpha  occ. eigenvalues --   -0.73826  -0.72659  -0.67834  -0.61698  -0.59171
 Alpha  occ. eigenvalues --   -0.58705  -0.53310  -0.50914  -0.50250  -0.49845
 Alpha  occ. eigenvalues --   -0.48362  -0.47499  -0.42843  -0.42635  -0.41887
 Alpha  occ. eigenvalues --   -0.39589  -0.35040  -0.34866  -0.32598  -0.31369
 Alpha  occ. eigenvalues --   -0.28379
 Alpha virt. eigenvalues --   -0.03871  -0.00278   0.03632   0.04450   0.08471
 Alpha virt. eigenvalues --    0.10149   0.11270   0.11487   0.12088   0.12958
 Alpha virt. eigenvalues --    0.13478   0.15897   0.17952   0.18449   0.19423

 Mulliken charges:
               1
     1  Br  -0.091471
     2  C   -0.078563
     3  C   -0.132670
     4  C   -0.152909
     5  C   -0.212049
     6  C    0.079225
     7  C   -0.148331
     8  C   -0.167593
     9  C   -0.066670
    10  N   -0.243669
    11  C    0.213111
    12  H    0.174403
    13  H    0.168131
    14  H    0.163512
    15  H    0.164096
    16  H    0.167185
    17  H    0.164262
 Sum of Mulliken charges =  -0.00000

 Dipole moment (field-independent basis, Debye):
    X=              3.9665    Y=              2.0545    Z=             -0.0003  Tot=              4.4670
 Quadrupole moment (field-independent basis, Debye-Ang):
   XX=            -64.2391   YY=            -66.0206   ZZ=            -80.0976
   XY=             -3.5711   XZ=             -0.0014   YZ=              0.0005

 Normal termination of Gaussian 16 at Tue Sep 17 10:32:17 2024.
