 Gaussian 16, Revision C.02,

 ----------------------------------------------------------------------
 #p B3LYP/6-31G(d,p) EmpiricalDispersion=GD3BJ opt freq scf(xqc,tight)
 integral(grid=ultrafine)
 ----------------------------------------------------------------------

 ----------------------------------
 opt-freq conformers_unique/conf_ab
 ----------------------------------
 Symbolic Z-matrix:
 Charge =  0 Multiplicity = 1

 SCF Done:  E(RB3LYP) =  -2972.07527811     A.U. after   15 cycles
 SCF Done:  E(RB3LYP) =  -2972.07671142     A.U. after   12 cycles
 SCF Done:  E(RB3LYP) =  -2972.07679509     A.U. after   10 cycles
 SCF Done:  E(RB3LYP) =  -2972.07680104     A.U. after    9 cycles
 SCF Done:  E(RB3LYP) =  -2972.07680336     A.U. after    8 cycles
 Optimization completed.
    -- Stationary point found.
 Normal termination of Gaussian 16 at Tue Sep 17 09:48:34 2024.

 ----------------------------------------------------------------------
 #P Geom=AllCheck Guess=TCheck SCRF=Check GenChk RB3LYP/6-31G(d,p) Freq
 ----------------------------------------------------------------------

 Structure from the checkpoint file:  "smiles_00104_conf_1.chk"
 ----------------------------------
 opt-freq conformers_unique/conf_ab
 ----------------------------------
 Charge =  0 Multiplicity = 1

 SCF Done:  E(RB3LYP) =  -2972.07680336     A.U. after    1 cycles

                      1                      2                      3
                      A                      A                      A
 Frequencies --     60.9027                75.0673               154.9012
 Red. masses --      3.7997                10.3165                 6.2549
 Frc consts  --      0.0083                 0.0343                 0.0884
 IR Inten    --      0.4452                 0.9360                 2.5557

                      4                      5                      6
                      A                      A                      A
 Frequencies --    168.2936               242.8594               248.0331
 Red. masses --      1.0311                 6.3359                10.8556
 Frc consts  --      0.0172                 0.2202                 0.3935
 IR Inten    --      0.2039                 1.0772                 3.4607

                      7                      8                      9
                      A                      A                      A
 Frequencies --    290.7101               417.8677               422.3686
 Red. masses --      5.2933                 4.1620                 3.4513
 Frc consts  --      0.2636                 0.4282                 0.3628
 IR Inten    --      1.7291                 8.6500                 4.6004

                     10                     11                     12
                      A                      A                      A
 Frequencies --    475.9861               499.4534               605.3926
 Red. masses --      3.3504                 6.0324                 2.5334
 Frc consts  --      0.4472                 0.8866                 0.5470
 IR Inten    --      0.6225                17.4848                 3.6345

                     13                     14                     15
                      A                      A                      A
 Frequencies --    614.8124               640.1996               760.5768
 Red. masses --      4.1198                 8.1520                 5.0067
 Frc consts  --      0.9175                 1.9685                 1.7064
 IR Inten    --      9.7053                 2.4084                 3.9153

                     16                     17                     18
                      A                      A                      A
 Frequencies --    788.0060               849.6348               963.2639
 Red. masses --      6.7352                 1.3577                 2.3042
 Frc consts  --      2.4641                 0.5774                 1.2597
 IR Inten    --     31.1655                21.0758                48.9289

                     19                     20                     21
                      A                      A                      A
 Frequencies --    980.2135               992.8740              1033.5216
 Red. masses --      1.3610                 1.3640                 3.3323
 Frc consts  --      0.7705                 0.7922                 2.0971
 IR Inten    --      3.2400                 0.1164                17.6310

                     22                     23                     24
                      A                      A                      A
 Frequencies --   1049.2527              1100.5540              1123.0938
 Red. masses --      1.8944                 3.5761                 2.4585
 Frc consts  --      1.2288                 2.5520                 1.8270
 IR Inten    --      1.1927                22.5523               149.3166

                     25                     26                     27
                      A                      A                      A
 Frequencies --   1171.4168              1289.5480              1312.4668
 Red. masses --      1.3454                 2.9154                 1.5077
 Frc consts  --      1.0877                 2.8565                 1.5301
 IR Inten    --      2.5607               229.0436                 3.4417

                     28                     29                     30
                      A                      A                      A
 Frequencies --   1317.9966              1390.8693              1417.7827
 Red. masses --      7.9446                 1.4875                 2.5448
 Frc consts  --      8.1312                 1.6955                 3.0139
 IR Inten    --      1.5141                31.3784                33.6114

                     31                     32                     33
                      A                      A                      A
 Frequencies --   1481.4256              1491.5973              1493.6759
 Red. masses --      1.0606                 1.0477                 2.4524
 Frc consts  --      1.3714                 1.3733                 3.2237
 IR Inten    --     11.2095                10.3321                61.3195

                     34                     35                     36
                      A                      A                      A
 Frequencies --   1603.9389              1633.3119              1786.1359
 Red. masses --      6.8947                 5.5773                10.9119
 Frc consts  --     10.4506                 8.7662                20.5106
 IR Inten    --     49.8560               188.2690               166.9779

                     37                     38                     39
                      A                      A                      A
 Frequencies --   3048.6666              3111.5684              3173.5322
 Red. masses --      1.0382                 1.0999                 1.1016
 Frc consts  --      5.6854                 6.2743                 6.5365
 IR Inten    --      2.4677                 7.8988                 8.5516

                     40                     41                     42
                      A                      A                      A
 Frequencies --   3209.4155              3211.2839              3238.1975
 Red. masses --      1.0897                 1.0912                 1.0952
 Frc consts  --      6.6131                 6.6301                 6.7660
 IR Inten    --      4.0993                 1.3381                 0.7433

 - Thermochemistry -
 -------------------
 Temperature   298.150 Kelvin.  Pressure   1.00000 Atm.
 Atom     1 has atomic number  6 and mass  12.00000

 Molecular mass:   198.96327 amu.
 Principal axes and moments of inertia in atomic units:
                           1         2         3
     Eigenvalues --   480.425944781.501255250.70498
           X            0.99990   0.01389   0.00002
           Y           -0.01389   0.99990  -0.00002
           Z           -0.00002   0.00002   1.00000
 This molecule is an asymmetric top.
 Rotational symmetry number  1.
 Warning -- assumption of classical behavior for rotation
           may cause significant error
 Rotational temperatures (Kelvin)      0.18029     0.01811     0.01650
 Rotational constants (GHZ):           3.75654     0.37744     0.34371
 Zero-point vibrational energy     304692.9 (Joules/Mol)
                                   72.82334 (Kcal/Mol)
 Warning -- explicit consideration of  13 degrees of freedom as
           vibrations may cause significant error
 Vibrational temperatures:     87.63   108.01   222.87   242.14   349.42
          (Kelvin)            356.86   418.27   601.22   607.69   684.84
                              718.60   871.02   884.58   921.10  1094.30
                             1133.76  1222.44  1385.92  1410.31  1428.52
                             1487.01  1509.64  1583.45  1615.88  1685.41
                             1855.37  1888.35  1896.30  2001.15  2039.87
                             2131.44  2146.08  2149.07  2307.71  2349.97
                             2569.85  4386.35  4476.85  4566.01  4617.63
                             4620.32  4659.04

 Zero-point correction=                           0.116051 (Hartree/Particle)
 Thermal correction to Energy=                    0.125197
 Thermal correction to Enthalpy=                  0.126142
 Thermal correction to Gibbs Free Energy=         0.080061
 Sum of electronic and zero-point Energies=          -2971.960752
 Sum of electronic and thermal Energies=             -2971.951606
 Sum of electronic and thermal Enthalpies=           -2971.950662
 Sum of electronic and thermal Free Energies=        -2971.996743

                     E (Thermal)             CV                S
                      KCal/Mol        Cal/Mol-Kelvin    Cal/Mol-Kelvin
 Total                   78.563             32.887             96.985
 Electronic               0.000              0.000              0.000
 Translational            0.889              2.981             41.769
 Rotational               0.889              2.981             30.868
 Vibrational             76.785             26.926             24.349
 Vibration     1          0.597              1.973              4.428
 Vibration     2          0.599              1.966              4.016
 Vibration     3          0.620              1.897              2.611
 Vibration     4          0.625              1.881              2.454
 Vibration     5          0.659              1.775              1.782
 Vibration     6          0.662              1.766              1.745
 Vibration     7          0.687              1.691              1.470
 Vibration     8          0.781              1.431              0.899
 Vibration     9          0.785              1.422              0.884
 Vibration    10          0.833              1.303              0.721
 Vibration    11          0.855              1.251              0.659
 Vibration    12          0.964              1.020              0.440
 Vibration    13          0.974              1.001              0.425

                           ! Non-Optimized Parameters !
 Normal termination of Gaussian 16 at Tue Sep 17 09:49:15 2024.

 ----------------------------------------------------------------------
 #p M062X/def2tzvp geom=check guess=read scf(xqc,tight) integral(grid=u
 ltrafine) scrf(SMD, solvent=1,4-Dioxane) polar prop=efg volume
 ----------------------------------------------------------------------

 ---
 spe
 ---
 Structure from the checkpoint file:  "smiles_00104_conf_1.chk"
 Charge =  0 Multiplicity = 1

 SCF Done:  E(RM062X) =  -2974.51769100     A.U. after   12 cycles

  Exact polarizability:     189.956      -3.187     120.895      -0.002      -0.012      70.727
 Approx polarizability:     184.937      -8.199     147.843      -0.008      -0.016      88.399

 Normal termination of Gaussian 16 at Tue Sep 17 10:10:31 2024.
 Gaussian 16:  ES64L-G16RevC.02  7-Dec-2021

 ----------------------------------------------------------------------
 #p M062X/def2tzvp geom=check guess=read scf(xqc,tight) integral(grid=u
 ltrafine) scrf(SMD, solvent=1,4-Dioxane) nmr=giao
 ----------------------------------------------------------------------

 ---
 spe
 ---
 Structure from the checkpoint file:  "smiles_00104_conf_1.chk"
 Charge =  0 Multiplicity = 1

                         Standard orientation:
 ---------------------------------------------------------------------
 Center     Atomic      Atomic             Coordinates (Angstroms)
 Number     Number       Type             X           Y           Z
 ---------------------------------------------------------------------
      1          6           0        4.078464    1.066800    0.001354
      2          6           0        3.230903   -0.189876   -0.000129
      3          8           0        3.742025   -1.298010   -0.001446
      4          6           0        1.741628   -0.043063   -0.000016
      5          6           0        1.080267    1.192117   -0.000703
      6          6           0       -0.308666    1.224840   -0.000773
      7          6           0       -0.974965   -0.002628    0.000009
      8         35           0       -2.888760    0.004329    0.000045
      9          7           0       -0.385469   -1.185866    0.000722
     10          6           0        0.951249   -1.200433    0.000605
     11          1           0        3.869385    1.679201   -0.882661
     12          1           0        5.129802    0.780481    0.003996
     13          1           0        3.864949    1.680829    0.883107
     14          1           0        1.637116    2.123026   -0.001264
     15          1           0       -0.861444    2.155381   -0.001401
     16          1           0        1.435607   -2.171845    0.001095
 ---------------------------------------------------------------------

 SCF Done:  E(RM062X) =  -2974.51769100     A.U. after    1 cycles

      1  C    Isotropic =   155.5068   Anisotropy =    49.6819

      2  C    Isotropic =   -40.1013   Anisotropy =   208.0635

      3  O    Isotropic =  -415.6045   Anisotropy =  1163.2346

      4  C    Isotropic =    34.4471   Anisotropy =   199.7401

      5  C    Isotropic =    23.2923   Anisotropy =   229.5518

      6  C    Isotropic =    36.5506   Anisotropy =   175.7979

      7  C    Isotropic =    -4.1533   Anisotropy =   125.8615

      8  Br   Isotropic =  1900.7153   Anisotropy =  1482.6648

      9  N    Isotropic =  -139.2032   Anisotropy =   587.2910

     10  C    Isotropic =     9.3433   Anisotropy =   208.9113

     11  H    Isotropic =    29.0669   Anisotropy =     4.3187

     12  H    Isotropic =    29.4324   Anisotropy =     6.3684

     13  H    Isotropic =    29.0619   Anisotropy =     4.2981

     14  H    Isotropic =    22.8945   Anisotropy =     9.1826

     15  H    Isotropic =    23.5760   Anisotropy =    11.1464

     16  H    Isotropic =    21.7489   Anisotropy =     7.9975

 The electronic state is 1-A.
 Alpha  occ. eigenvalues -- -485.38154 -63.36651 -57.18591 -57.18363 -57.18346
 Alpha  occ. eigenvalues --  -19.62919 -14.77609 -10.65031 -10.64680 -10.60091
 Alpha  occ. eigenvalues --  -10.58666 -10.57597 -10.57414 -10.54575  -9.03306
 Alpha  occ. eigenvalues --   -6.85706  -6.84857  -6.84800  -2.89084  -2.88785
 Alpha  occ. eigenvalues --   -2.88725  -2.87936  -2.87935  -1.17632  -1.08789
 Alpha  occ. eigenvalues --   -0.93788  -0.91944  -0.86055  -0.83487  -0.74322
 Alpha  occ. eigenvalues --   -0.73206  -0.65553  -0.60256  -0.58190  -0.54830
 Alpha  occ. eigenvalues --   -0.53049  -0.52938  -0.51314  -0.50241  -0.49081
 Alpha  occ. eigenvalues --   -0.46429  -0.44263  -0.44231  -0.38857  -0.36853
 Alpha  occ. eigenvalues --   -0.36445  -0.35739  -0.33417  -0.31775
 Alpha virt. eigenvalues --   -0.04577  -0.01672   0.03274   0.05415   0.06885
 Alpha virt. eigenvalues --    0.10126   0.11423   0.12957   0.13843   0.14111
 Alpha virt. eigenvalues --    0.14268   0.16696   0.17020   0.18273   0.20300

 Mulliken charges:
               1
     1  C   -0.533666
     2  C    0.289216
     3  O   -0.328921
     4  C    0.010327
     5  C   -0.130300
     6  C   -0.215531
     7  C    0.166520
     8  Br  -0.090252
     9  N   -0.220158
    10  C   -0.054378
    11  H    0.182964
    12  H    0.172057
    13  H    0.182783
    14  H    0.195172
    15  H    0.186822
    16  H    0.187346
 Sum of Mulliken charges =  -0.00000

 Dipole moment (field-independent basis, Debye):
    X=              1.5081    Y=              4.9508    Z=              0.0014  Tot=              5.1754
 Quadrupole moment (field-independent basis, Debye-Ang):
   XX=            -75.0288   YY=            -69.1698   ZZ=            -71.3095
   XY=              9.4951   XZ=              0.0128   YZ=             -0.0079

 Normal termination of Gaussian 16 at Tue Sep 17 10:18:27 2024.
