 Gaussian 16, Revision C.02,

 ----------------------------------------------------------------------
 #p B3LYP/6-31G(d,p) EmpiricalDispersion=GD3BJ opt freq scf(xqc,tight)
 integral(grid=ultrafine)
 ----------------------------------------------------------------------

 ----------------------------------
 opt-freq conformers_unique/conf_ad
 ----------------------------------
 Symbolic Z-matrix:
 Charge =  0 Multiplicity = 1

 SCF Done:  E(RB3LYP) =  -3067.72127897     A.U. after   14 cycles
 SCF Done:  E(RB3LYP) =  -3067.72380874     A.U. after   12 cycles
 SCF Done:  E(RB3LYP) =  -3067.72412390     A.U. after   12 cycles
 SCF Done:  E(RB3LYP) =  -3067.72439316     A.U. after   14 cycles
 SCF Done:  E(RB3LYP) =  -3067.72445221     A.U. after   12 cycles
 SCF Done:  E(RB3LYP) =  -3067.72436782     A.U. after   12 cycles
 SCF Done:  E(RB3LYP) =  -3067.72454929     A.U. after   12 cycles
 SCF Done:  E(RB3LYP) =  -3067.72482313     A.U. after   14 cycles
 SCF Done:  E(RB3LYP) =  -3067.72500284     A.U. after   14 cycles
 SCF Done:  E(RB3LYP) =  -3067.72524107     A.U. after   12 cycles
 SCF Done:  E(RB3LYP) =  -3067.72579518     A.U. after   10 cycles
 SCF Done:  E(RB3LYP) =  -3067.72579978     A.U. after    9 cycles
 SCF Done:  E(RB3LYP) =  -3067.72580431     A.U. after   10 cycles
 SCF Done:  E(RB3LYP) =  -3067.72580616     A.U. after   10 cycles
 SCF Done:  E(RB3LYP) =  -3067.72580689     A.U. after    9 cycles
 SCF Done:  E(RB3LYP) =  -3067.72580696     A.U. after    7 cycles
 SCF Done:  E(RB3LYP) =  -3067.72580699     A.U. after    7 cycles
 Optimization completed.
    -- Stationary point found.
 Normal termination of Gaussian 16 at Tue Sep 17 10:01:35 2024.

 ----------------------------------------------------------------------
 #P Geom=AllCheck Guess=TCheck SCRF=Check GenChk RB3LYP/6-31G(d,p) Freq
 ----------------------------------------------------------------------

 Structure from the checkpoint file:  "smiles_00124_conf_3.chk"
 ----------------------------------
 opt-freq conformers_unique/conf_ad
 ----------------------------------
 Charge =  0 Multiplicity = 1

 SCF Done:  E(RB3LYP) =  -3067.72580699     A.U. after    1 cycles

                      1                      2                      3
                      A                      A                      A
 Frequencies --     21.5072                27.7201                51.9037
 Red. masses --      4.1940                 6.6418                 4.6161
 Frc consts  --      0.0011                 0.0030                 0.0073
 IR Inten    --      0.1584                 0.4165                 1.8229

                      4                      5                      6
                      A                      A                      A
 Frequencies --    154.6317               174.2152               233.9863
 Red. masses --      5.6940                 5.9495                 4.9091
 Frc consts  --      0.0802                 0.1064                 0.1584
 IR Inten    --      0.1854                 0.1652                 0.9322

                      7                      8                      9
                      A                      A                      A
 Frequencies --    279.8523               309.7341               368.3323
 Red. masses --      3.9578                 8.6389                 5.9287
 Frc consts  --      0.1826                 0.4883                 0.4739
 IR Inten    --      1.1556                 1.9152                 1.1814

                     10                     11                     12
                      A                      A                      A
 Frequencies --    400.4151               415.8433               477.1899
 Red. masses --      2.4984                 2.9754                 3.5040
 Frc consts  --      0.2360                 0.3031                 0.4701
 IR Inten    --      2.9959                 0.2779                 4.1532

                     13                     14                     15
                      A                      A                      A
 Frequencies --    585.5951               630.3969               637.7364
 Red. masses --      4.9243                 4.1186                 4.2112
 Frc consts  --      0.9949                 0.9643                 1.0091
 IR Inten    --      2.4016                10.0676                10.9234

                     16                     17                     18
                      A                      A                      A
 Frequencies --    669.4418               711.1915               738.4110
 Red. masses --      6.6077                 2.8629                 1.5454
 Frc consts  --      1.7447                 0.8532                 0.4965
 IR Inten    --      2.2518                 5.6648                58.1071

                     19                     20                     21
                      A                      A                      A
 Frequencies --    790.3121               802.0661               827.5118
 Red. masses --      2.1272                 1.7634                 4.0341
 Frc consts  --      0.7828                 0.6684                 1.6276
 IR Inten    --      4.9531                13.7373                 1.1790

                     22                     23                     24
                      A                      A                      A
 Frequencies --    865.1492               872.2611               922.7536
 Red. masses --      1.2464                 1.3416                 1.3887
 Frc consts  --      0.5497                 0.6014                 0.6967
 IR Inten    --      0.1239                14.6054                 3.2693

                     25                     26                     27
                      A                      A                      A
 Frequencies --    966.1518               977.5403               980.2708
 Red. masses --      2.2748                 3.5353                 1.5954
 Frc consts  --      1.2511                 1.9904                 0.9033
 IR Inten    --     24.1282                36.2355                 5.7618

                     28                     29                     30
                      A                      A                      A
 Frequencies --   1004.7748              1015.7080              1022.0654
 Red. masses --      1.3094                 3.3688                 5.2717
 Frc consts  --      0.7789                 2.0477                 3.2446
 IR Inten    --      0.2161                17.6149                 2.5731

                     31                     32                     33
                      A                      A                      A
 Frequencies --   1058.6675              1113.3492              1135.6243
 Red. masses --      2.2085                 1.5853                 1.7060
 Frc consts  --      1.4584                 1.1578                 1.2963
 IR Inten    --      3.6703                 3.2191                 4.1497

                     34                     35                     36
                      A                      A                      A
 Frequencies --   1177.4088              1189.6058              1210.8092
 Red. masses --      1.3597                 1.1008                 1.1307
 Frc consts  --      1.1106                 0.9179                 0.9767
 IR Inten    --      9.8492                 0.2729                 2.7265

                     37                     38                     39
                      A                      A                      A
 Frequencies --   1221.5843              1232.3539              1333.5147
 Red. masses --      1.7912                 2.3349                 2.4558
 Frc consts  --      1.5749                 2.0892                 2.5730
 IR Inten    --     13.0558                 4.9003                11.6225

                     40                     41                     42
                      A                      A                      A
 Frequencies --   1350.5759              1367.0874              1377.9172
 Red. masses --      2.9894                 2.2319                 3.2822
 Frc consts  --      3.2127                 2.4576                 3.6717
 IR Inten    --     64.3835                 1.7013                 4.8343

                     43                     44                     45
                      A                      A                      A
 Frequencies --   1395.8299              1423.3453              1467.0880
 Red. masses --      1.5936                 4.3890                 2.4029
 Frc consts  --      1.8294                 5.2389                 3.0472
 IR Inten    --     31.4689                15.8624                18.0794

                     46                     47                     48
                      A                      A                      A
 Frequencies --   1492.1048              1501.3009              1543.0725
 Red. masses --      1.4647                 2.0776                 2.2507
 Frc consts  --      1.9213                 2.7590                 3.1575
 IR Inten    --      8.1245                18.8603                 9.8622

                     49                     50                     51
                      A                      A                      A
 Frequencies --   1568.8282              1647.2384              1666.5392
 Red. masses --      4.6242                 5.6994                 5.5969
 Frc consts  --      6.7056                 9.1115                 9.1586
 IR Inten    --      3.6972                 1.3608                 2.9829

                     52                     53                     54
                      A                      A                      A
 Frequencies --   3072.9104              3126.0510              3172.9985
 Red. masses --      1.0604                 1.1049                 1.0875
 Frc consts  --      5.8997                 6.3616                 6.4507
 IR Inten    --     23.7139                 3.0223                 8.5711

                     55                     56                     57
                      A                      A                      A
 Frequencies --   3184.4686              3193.7010              3202.1502
 Red. masses --      1.0866                 1.0905                 1.0944
 Frc consts  --      6.4920                 6.5535                 6.6114
 IR Inten    --      0.6108                13.3430                20.3637

                     58                     59                     60
                      A                      A                      A
 Frequencies --   3210.4649              3272.1187              3289.1586
 Red. masses --      1.0985                 1.0973                 1.0990
 Frc consts  --      6.6712                 6.9218                 7.0053
 IR Inten    --     17.2097                 1.0044                 0.7827

 - Thermochemistry -
 -------------------
 Temperature   298.150 Kelvin.  Pressure   1.00000 Atm.
 Atom     1 has atomic number 35 and mass  78.91834

 Molecular mass:   235.99491 amu.
 Principal axes and moments of inertia in atomic units:
                           1         2         3
     Eigenvalues --  1314.277117446.669267824.76077
           X            0.99973   0.02285   0.00448
           Y           -0.02267   0.99911  -0.03551
           Z           -0.00529   0.03540   0.99936
 This molecule is an asymmetric top.
 Rotational symmetry number  1.
 Warning -- assumption of classical behavior for rotation
           may cause significant error
 Rotational temperatures (Kelvin)      0.06590     0.01163     0.01107
 Rotational constants (GHZ):           1.37318     0.24236     0.23064
 Zero-point vibrational energy     449392.4 (Joules/Mol)
                                  107.40735 (Kcal/Mol)
 Warning -- explicit consideration of  13 degrees of freedom as
           vibrations may cause significant error
 Vibrational temperatures:     30.94    39.88    74.68   222.48   250.66
          (Kelvin)            336.65   402.65   445.64   529.95   576.11
                              598.31   686.57   842.54   907.00   917.56
                              963.18  1023.25  1062.41  1137.08  1153.99
                             1190.60  1244.76  1254.99  1327.64  1390.08
                             1406.46  1410.39  1445.65  1461.38  1470.52
                             1523.19  1601.86  1633.91  1694.03  1711.58
                             1742.08  1757.59  1773.08  1918.63  1943.18
                             1966.93  1982.52  2008.29  2047.88  2110.81
                             2146.81  2160.04  2220.14  2257.19  2370.01
                             2397.78  4421.23  4497.69  4565.24  4581.74
                             4595.02  4607.18  4619.14  4707.85  4732.37

 Zero-point correction=                           0.171165 (Hartree/Particle)
 Thermal correction to Energy=                    0.182040
 Thermal correction to Enthalpy=                  0.182985
 Thermal correction to Gibbs Free Energy=         0.130723
 Sum of electronic and zero-point Energies=          -3067.554642
 Sum of electronic and thermal Energies=             -3067.543767
 Sum of electronic and thermal Enthalpies=           -3067.542822
 Sum of electronic and thermal Free Energies=        -3067.595084

                     E (Thermal)             CV                S
                      KCal/Mol        Cal/Mol-Kelvin    Cal/Mol-Kelvin
 Total                  114.232             40.781            109.994
 Electronic               0.000              0.000              0.000
 Translational            0.889              2.981             42.277
 Rotational               0.889              2.981             32.704
 Vibrational            112.455             34.819             35.012
 Vibration     1          0.593              1.985              6.490
 Vibration     2          0.593              1.984              5.986
 Vibration     3          0.596              1.977              4.744
 Vibration     4          0.620              1.898              2.614
 Vibration     5          0.627              1.874              2.390
 Vibration     6          0.654              1.789              1.848
 Vibration     7          0.680              1.711              1.535
 Vibration     8          0.699              1.655              1.364
 Vibration     9          0.741              1.537              1.087
 Vibration    10          0.766              1.469              0.961
 Vibration    11          0.779              1.436              0.906
 Vibration    12          0.834              1.301              0.718
 Vibration    13          0.943              1.063              0.475

 Optimization completed.
    -- Stationary point found.
 Normal termination of Gaussian 16 at Tue Sep 17 10:03:33 2024.

 ----------------------------------------------------------------------
 #p M062X/def2tzvp geom=check guess=read scf(xqc,tight) integral(grid=u
 ltrafine) scrf(SMD, solvent=1,4-Dioxane) polar prop=efg volume
 ----------------------------------------------------------------------

 ---
 spe
 ---
 Structure from the checkpoint file:  "smiles_00124_conf_3.chk"
 Charge =  0 Multiplicity = 1

 SCF Done:  E(RM062X) =  -3070.13978604     A.U. after   12 cycles

  Exact polarizability:     200.372       9.388     141.142      13.715       0.837     154.324
 Approx polarizability:     195.902       6.326     165.971      16.364       3.486     187.044

 Normal termination of Gaussian 16 at Tue Sep 17 10:52:01 2024.
 Gaussian 16:  ES64L-G16RevC.02  7-Dec-2021

 ----------------------------------------------------------------------
 #p M062X/def2tzvp geom=check guess=read scf(xqc,tight) integral(grid=u
 ltrafine) scrf(SMD, solvent=1,4-Dioxane) nmr=giao
 ----------------------------------------------------------------------

 ---
 spe
 ---
 Structure from the checkpoint file:  "smiles_00124_conf_3.chk"
 Charge =  0 Multiplicity = 1

                         Standard orientation:
 ---------------------------------------------------------------------
 Center     Atomic      Atomic             Coordinates (Angstroms)
 Number     Number       Type             X           Y           Z
 ---------------------------------------------------------------------
      1         35           0        3.409012   -0.799550   -0.119297
      2          6           0        1.882804    0.290418    0.044582
      3          6           0        1.631905    1.274605    1.021751
      4          7           0        0.447542    1.851929    0.815979
      5          7           0       -0.050570    1.251520   -0.290516
      6          6           0       -1.404578    1.561414   -0.728146
      7          6           0       -2.412808    0.516317   -0.298155
      8          6           0       -2.430967    0.059821    1.025074
      9          6           0       -3.366487   -0.891055    1.424738
     10          6           0       -4.295011   -1.392524    0.509097
     11          6           0       -4.280766   -0.940696   -0.809400
     12          6           0       -3.338807    0.008066   -1.211241
     13          6           0        0.776330    0.293068   -0.782762
     14          1           0        2.262065    1.579454    1.844213
     15          1           0       -1.631966    2.537137   -0.291624
     16          1           0       -1.404924    1.669816   -1.816634
     17          1           0       -1.704420    0.450465    1.731046
     18          1           0       -3.372451   -1.242239    2.452033
     19          1           0       -5.023102   -2.134102    0.822878
     20          1           0       -4.995469   -1.330232   -1.527825
     21          1           0       -3.323745    0.354169   -2.241615
     22          1           0        0.530100   -0.300954   -1.648564
 ---------------------------------------------------------------------

 SCF Done:  E(RM062X) =  -3070.13978604     A.U. after    1 cycles

      1  Br   Isotropic =  2346.1061   Anisotropy =   944.9565

      2  C    Isotropic =    58.9404   Anisotropy =    93.5114

      3  C    Isotropic =    24.5614   Anisotropy =   144.7478

      4  N    Isotropic =  -129.9569   Anisotropy =   387.5569

      5  N    Isotropic =   -10.0518   Anisotropy =   198.9388

      6  C    Isotropic =   123.7472   Anisotropy =    43.5101

      7  C    Isotropic =    21.9612   Anisotropy =   223.5584

      8  C    Isotropic =    35.5403   Anisotropy =   219.8329

      9  C    Isotropic =    33.4476   Anisotropy =   221.2089

     10  C    Isotropic =    34.4949   Anisotropy =   218.7125

     11  C    Isotropic =    34.7786   Anisotropy =   216.6848

     12  C    Isotropic =    37.0528   Anisotropy =   194.9789

     13  C    Isotropic =    35.6985   Anisotropy =   141.9277

     14  H    Isotropic =    23.6850   Anisotropy =     5.9550

     15  H    Isotropic =    26.1078   Anisotropy =     4.6982

     16  H    Isotropic =    26.6225   Anisotropy =     6.7254

     17  H    Isotropic =    23.7719   Anisotropy =    11.9987

     18  H    Isotropic =    23.6731   Anisotropy =     7.0308

     19  H    Isotropic =    23.6962   Anisotropy =     5.5770

     20  H    Isotropic =    23.6312   Anisotropy =     5.8903

     21  H    Isotropic =    23.6711   Anisotropy =     8.0051

     22  H    Isotropic =    23.9230   Anisotropy =     8.7278

 The electronic state is 1-A.
 Alpha  occ. eigenvalues -- -485.37910 -63.36380 -57.18334 -57.18085 -57.18082
 Alpha  occ. eigenvalues --  -14.83818 -14.78201 -10.59187 -10.58888 -10.58675
 Alpha  occ. eigenvalues --  -10.56896 -10.55866 -10.54844 -10.54690 -10.54623
 Alpha  occ. eigenvalues --  -10.54517 -10.54469  -9.03033  -6.85472  -6.84544
 Alpha  occ. eigenvalues --   -6.84534  -2.88851  -2.88503  -2.88500  -2.87631
 Alpha  occ. eigenvalues --   -2.87630  -1.17492  -0.97783  -0.94920  -0.92249
 Alpha  occ. eigenvalues --   -0.87301  -0.84684  -0.84062  -0.77902  -0.69560
 Alpha  occ. eigenvalues --   -0.68482  -0.67731  -0.65495  -0.60843  -0.59249
 Alpha  occ. eigenvalues --   -0.55260  -0.52927  -0.52625  -0.51693  -0.49142
 Alpha  occ. eigenvalues --   -0.48726  -0.48000  -0.47157  -0.46320  -0.43607
 Alpha  occ. eigenvalues --   -0.41298  -0.40404  -0.38956  -0.38479  -0.34804
 Alpha  occ. eigenvalues --   -0.32583  -0.31358  -0.30537  -0.29253
 Alpha virt. eigenvalues --    0.01025   0.01541   0.03488   0.04812   0.07693
 Alpha virt. eigenvalues --    0.08120   0.09333   0.10881   0.11664   0.12331
 Alpha virt. eigenvalues --    0.12613   0.13618   0.13812   0.14782   0.15523

 Mulliken charges:
               1
     1  Br  -0.094128
     2  C   -0.084902
     3  C   -0.076735
     4  N   -0.277831
     5  N    0.097598
     6  C   -0.299077
     7  C    0.096607
     8  C   -0.185135
     9  C   -0.154925
    10  C   -0.172088
    11  C   -0.153686
    12  C   -0.207955
    13  C   -0.093606
    14  H    0.178648
    15  H    0.198375
    16  H    0.188649
    17  H    0.187595
    18  H    0.163779
    19  H    0.163217
    20  H    0.162144
    21  H    0.163054
    22  H    0.200401
 Sum of Mulliken charges =  -0.00000

 Dipole moment (field-independent basis, Debye):
    X=             -2.6696    Y=             -0.4454    Z=             -1.7331  Tot=              3.2139
 Quadrupole moment (field-independent basis, Debye-Ang):
   XX=            -86.6814   YY=            -90.8213   ZZ=            -81.3968
   XY=              3.2178   XZ=              4.2014   YZ=             -3.1210

 Normal termination of Gaussian 16 at Tue Sep 17 11:09:35 2024.
