 Gaussian 16, Revision C.02,

 ----------------------------------------------------------------------
 #p B3LYP/gen pseudo=read EmpiricalDispersion=GD3BJ opt freq scf(xqc,ti
 ght) integral(grid=ultrafine)
 ----------------------------------------------------------------------

 ----------------------------------
 opt-freq conformers_unique/conf_ae
 ----------------------------------
 Symbolic Z-matrix:
 Charge =  0 Multiplicity = 1

 SCF Done:  E(RB3LYP) =  -550.307168878     A.U. after   15 cycles
 SCF Done:  E(RB3LYP) =  -550.308823999     A.U. after   13 cycles
 SCF Done:  E(RB3LYP) =  -550.308912529     A.U. after   12 cycles
 SCF Done:  E(RB3LYP) =  -550.309061281     A.U. after   12 cycles
 SCF Done:  E(RB3LYP) =  -550.309064903     A.U. after   11 cycles
 SCF Done:  E(RB3LYP) =  -550.309119478     A.U. after   10 cycles
 SCF Done:  E(RB3LYP) =  -550.309126856     A.U. after   10 cycles
 SCF Done:  E(RB3LYP) =  -550.309130457     A.U. after   10 cycles
 SCF Done:  E(RB3LYP) =  -550.309133878     A.U. after    9 cycles
 SCF Done:  E(RB3LYP) =  -550.309138053     A.U. after   10 cycles
 SCF Done:  E(RB3LYP) =  -550.309089793     A.U. after   14 cycles
 SCF Done:  E(RB3LYP) =  -550.309195531     A.U. after   12 cycles
 SCF Done:  E(RB3LYP) =  -550.309240754     A.U. after   12 cycles
 SCF Done:  E(RB3LYP) =  -550.309257372     A.U. after   11 cycles
 SCF Done:  E(RB3LYP) =  -550.309258586     A.U. after    9 cycles
 SCF Done:  E(RB3LYP) =  -550.309258899     A.U. after    8 cycles
 SCF Done:  E(RB3LYP) =  -550.309258965     A.U. after    7 cycles
 Optimization completed.
    -- Stationary point found.
 Normal termination of Gaussian 16 at Tue Sep 17 09:54:37 2024.

 ------------------------------------------------------------------
 #P Geom=AllCheck Guess=TCheck SCRF=Check GenChk RB3LYP/ChkBas Freq
 ------------------------------------------------------------------

 Structure from the checkpoint file:  "smiles_00094_conf_4.chk"
 ----------------------------------
 opt-freq conformers_unique/conf_ae
 ----------------------------------
 Charge =  0 Multiplicity = 1

 SCF Done:  E(RB3LYP) =  -550.309258965     A.U. after    1 cycles

                      1                      2                      3
                      A                      A                      A
 Frequencies --     45.7501                55.1263                70.7349
 Red. masses --      4.1948                 1.1685                 3.7156
 Frc consts  --      0.0052                 0.0021                 0.0110
 IR Inten    --      0.7917                 0.7109                 6.6108

                      4                      5                      6
                      A                      A                      A
 Frequencies --     96.5188               143.0553               185.5460
 Red. masses --      6.6065                 8.1664                 8.2159
 Frc consts  --      0.0363                 0.0985                 0.1667
 IR Inten    --      3.1992                 3.3948                 0.4419

                      7                      8                      9
                      A                      A                      A
 Frequencies --    204.5044               223.2818               297.9471
 Red. masses --      8.7200                 6.8795                 7.0674
 Frc consts  --      0.2149                 0.2021                 0.3696
 IR Inten    --      1.1681                 2.1797                 3.3135

                     10                     11                     12
                      A                      A                      A
 Frequencies --    345.1192               364.1505               415.6389
 Red. masses --      6.0723                 3.9651                 1.2364
 Frc consts  --      0.4261                 0.3098                 0.1258
 IR Inten    --      1.7288                 9.8536                88.7373

                     13                     14                     15
                      A                      A                      A
 Frequencies --    464.9037               482.4409               554.1430
 Red. masses --      3.3831                 4.5550                 6.9002
 Frc consts  --      0.4308                 0.6246                 1.2484
 IR Inten    --      7.1563                10.8705                 3.8897

                     16                     17                     18
                      A                      A                      A
 Frequencies --    576.4618               593.7086               616.9289
 Red. masses --      4.4761                 4.7424                 3.1080
 Frc consts  --      0.8764                 0.9849                 0.6969
 IR Inten    --      2.4450                10.2017                 2.9283

                     19                     20                     21
                      A                      A                      A
 Frequencies --    676.4192               714.7568               807.9017
 Red. masses --      5.7653                 4.4745                 1.8998
 Frc consts  --      1.5542                 1.3468                 0.7306
 IR Inten    --      9.4607                 5.6450                18.1891

                     22                     23                     24
                      A                      A                      A
 Frequencies --    834.2867               878.2852               889.6578
 Red. masses --      2.6170                 1.3742                 5.9325
 Frc consts  --      1.0732                 0.6246                 2.7665
 IR Inten    --     23.4415                14.8905                77.1275

                     25                     26                     27
                      A                      A                      A
 Frequencies --    946.4505               965.8409              1011.0158
 Red. masses --      1.4032                 3.8138                 1.7424
 Frc consts  --      0.7405                 2.0961                 1.0493
 IR Inten    --      0.6235                 1.9868                14.9407

                     28                     29                     30
                      A                      A                      A
 Frequencies --   1053.4097              1090.0710              1159.7147
 Red. masses --      1.7303                 1.9361                 1.5269
 Frc consts  --      1.1313                 1.3554                 1.2100
 IR Inten    --     14.8667                11.5469                13.9853

                     31                     32                     33
                      A                      A                      A
 Frequencies --   1239.0047              1262.5420              1275.3270
 Red. masses --      2.3031                 3.1414                 1.5232
 Frc consts  --      2.0831                 2.9503                 1.4596
 IR Inten    --     68.4692               107.4345                18.0835

                     34                     35                     36
                      A                      A                      A
 Frequencies --   1297.3211              1348.3751              1407.2098
 Red. masses --      2.2736                 7.8878                 1.2699
 Frc consts  --      2.2546                 8.4494                 1.4816
 IR Inten    --      6.4655                54.1636                21.3131

                     37                     38                     39
                      A                      A                      A
 Frequencies --   1442.4090              1479.0623              1500.4213
 Red. masses --      3.3081                 1.0932                 1.0642
 Frc consts  --      4.0551                 1.4090                 1.4116
 IR Inten    --     69.0794                31.5138                 9.8082

                     40                     41                     42
                      A                      A                      A
 Frequencies --   1519.0773              1543.3527              1638.9346
 Red. masses --      2.0160                 3.4626                 6.8961
 Frc consts  --      2.7409                 4.8594                10.9139
 IR Inten    --    203.7449               340.0373                20.8495

                     43                     44                     45
                      A                      A                      A
 Frequencies --   1651.7619              1817.1969              3057.4625
 Red. masses --      7.1916                10.0656                 1.0380
 Frc consts  --     11.5604                19.5836                 5.7170
 IR Inten    --     10.6199               191.7192                 7.6900

                     46                     47                     48
                      A                      A                      A
 Frequencies --   3123.5891              3170.4458              3194.2473
 Red. masses --      1.1017                 1.1009                 1.0899
 Frc consts  --      6.3332                 6.5200                 6.5518
 IR Inten    --     12.9564                 6.4107                 6.8493

                     49                     50                     51
                      A                      A                      A
 Frequencies --   3230.4422              3238.9493              3639.3604
 Red. masses --      1.0938                 1.0926                 1.0772
 Frc consts  --      6.7251                 6.7535                 8.4059
 IR Inten    --      2.1245                 1.9121                23.5634

 - Thermochemistry -
 -------------------
 Temperature   298.150 Kelvin.  Pressure   1.00000 Atm.
 Atom     1 has atomic number  6 and mass  12.00000

 Molecular mass:   278.95157 amu.
 Principal axes and moments of inertia in atomic units:
                           1         2         3
     Eigenvalues --   791.839218753.102359244.52844
           X            0.99997   0.00744   0.00097
           Y           -0.00743   0.99989  -0.01321
           Z           -0.00106   0.01320   0.99991
 This molecule is an asymmetric top.
 Rotational symmetry number  1.
 Warning -- assumption of classical behavior for rotation
           may cause significant error
 Rotational temperatures (Kelvin)      0.10938     0.00990     0.00937
 Rotational constants (GHZ):           2.27918     0.20618     0.19522
 Zero-point vibrational energy     357924.3 (Joules/Mol)
                                   85.54595 (Kcal/Mol)
 Warning -- explicit consideration of  18 degrees of freedom as
           vibrations may cause significant error
 Vibrational temperatures:     65.82    79.31   101.77   138.87   205.82
          (Kelvin)            266.96   294.24   321.25   428.68   496.55
                              523.93   598.01   668.89   694.12   797.29
                              829.40   854.21   887.62   973.22  1028.38
                             1162.39  1200.35  1263.66  1280.02  1361.73
                             1389.63  1454.63  1515.62  1568.37  1668.57
                             1782.65  1816.52  1834.91  1866.56  1940.01
                             2024.66  2075.30  2128.04  2158.77  2185.61
                             2220.54  2358.06  2376.52  2614.54  4399.01
                             4494.15  4561.56  4595.81  4647.89  4660.13
                             5236.23

 Zero-point correction=                           0.136326 (Hartree/Particle)
 Thermal correction to Energy=                    0.148058
 Thermal correction to Enthalpy=                  0.149002
 Thermal correction to Gibbs Free Energy=         0.095942
 Sum of electronic and zero-point Energies=           -550.172933
 Sum of electronic and thermal Energies=              -550.161201
 Sum of electronic and thermal Enthalpies=            -550.160257
 Sum of electronic and thermal Free Energies=         -550.213317

                     E (Thermal)             CV                S
                      KCal/Mol        Cal/Mol-Kelvin    Cal/Mol-Kelvin
 Total                   92.908             41.763            111.676
 Electronic               0.000              0.000              0.000
 Translational            0.889              2.981             42.776
 Rotational               0.889              2.981             32.527
 Vibrational             91.131             35.801             36.373
 Vibration     1          0.595              1.979              4.993
 Vibration     2          0.596              1.976              4.624
 Vibration     3          0.598              1.968              4.133
 Vibration     4          0.603              1.952              3.523
 Vibration     5          0.616              1.910              2.763
 Vibration     6          0.632              1.860              2.272
 Vibration     7          0.640              1.833              2.092
 Vibration     8          0.649              1.806              1.932
 Vibration     9          0.691              1.678              1.428
 Vibration    10          0.723              1.585              1.188
 Vibration    11          0.738              1.546              1.104
 Vibration    12          0.779              1.436              0.907
 Vibration    13          0.822              1.328              0.752
 Vibration    14          0.839              1.289              0.704
 Vibration    15          0.910              1.131              0.536
 Vibration    16          0.933              1.082              0.492
 Vibration    17          0.951              1.045              0.461
 Vibration    18          0.977              0.996              0.421

 Optimization completed.
    -- Stationary point found.
 Normal termination of Gaussian 16 at Tue Sep 17 09:56:54 2024.

 ----------------------------------------------------------------------
 #p M062X/def2tzvp geom=check guess=read scf(xqc,tight) integral(grid=u
 ltrafine) scrf(SMD, solvent=1,4-Dioxane) polar prop=efg volume
 ----------------------------------------------------------------------

 ---
 spe
 ---
 Structure from the checkpoint file:  "smiles_00094_conf_4.chk"
 Charge =  0 Multiplicity = 1

 SCF Done:  E(RM062X) =  -836.529052283     A.U. after   23 cycles

  Exact polarizability:     235.851       4.624     139.303      -4.328      -2.912      96.284
 Approx polarizability:     218.613       2.723     172.974      -6.285      -4.079     122.043

 Normal termination of Gaussian 16 at Tue Sep 17 10:57:40 2024.
 Gaussian 16:  ES64L-G16RevC.02  7-Dec-2021

 ----------------------------------------------------------------------
 #p M062X/def2tzvp geom=check guess=read scf(xqc,tight) integral(grid=u
 ltrafine) scrf(SMD, solvent=1,4-Dioxane) nmr=giao
 ----------------------------------------------------------------------

 ---
 spe
 ---
 Structure from the checkpoint file:  "smiles_00094_conf_4.chk"
 Charge =  0 Multiplicity = 1

                         Standard orientation:
 ---------------------------------------------------------------------
 Center     Atomic      Atomic             Coordinates (Angstroms)
 Number     Number       Type             X           Y           Z
 ---------------------------------------------------------------------
      1          6           0        5.560133    0.338095    0.028216
      2          6           0        4.112830    0.014051    0.354548
      3          8           0        3.784719   -0.793940    1.202833
      4          7           0        3.189434    0.689515   -0.429759
      5          6           0        1.794570    0.527565   -0.299653
      6          6           0        0.953235    1.629412   -0.124549
      7          6           0       -0.429502    1.480350   -0.026192
      8          6           0       -0.974843    0.199289   -0.080783
      9         53           0       -3.089609   -0.057309    0.095101
     10          6           0       -0.166320   -0.921427   -0.254528
     11          6           0        1.205520   -0.739950   -0.380091
     12          9           0        1.973039   -1.811989   -0.617229
     13          1           0        5.698787    1.355168   -0.350951
     14          1           0        5.920533   -0.360957   -0.733868
     15          1           0        6.159399    0.198510    0.928219
     16          1           0        3.512915    1.469520   -0.982419
     17          1           0        1.394824    2.619085   -0.053600
     18          1           0       -1.062588    2.348758    0.107542
     19          1           0       -0.569499   -1.924228   -0.316366
 ---------------------------------------------------------------------

 SCF Done:  E(RM062X) =  -836.529052283     A.U. after    1 cycles

      1  C    Isotropic =   160.7474   Anisotropy =    51.1300

      2  C    Isotropic =    -1.1693   Anisotropy =   139.3988

      3  O    Isotropic =  -164.0142   Anisotropy =   752.8160

      4  N    Isotropic =   112.4944   Anisotropy =   151.5695

      5  C    Isotropic =    39.1324   Anisotropy =   159.3053

      6  C    Isotropic =    38.3126   Anisotropy =   180.4969

      7  C    Isotropic =    31.9621   Anisotropy =   177.6031

      8  C    Isotropic =    31.3986   Anisotropy =   142.2750

      9  I    Isotropic =   433.6873   Anisotropy =    74.5927

     10  C    Isotropic =    39.8893   Anisotropy =   152.1985

     11  C    Isotropic =     5.7618   Anisotropy =   125.0725

     12  F    Isotropic =   284.0846   Anisotropy =   147.2530

     13  H    Isotropic =    29.9539   Anisotropy =     6.0426

     14  H    Isotropic =    29.4968   Anisotropy =     6.5510

     15  H    Isotropic =    29.8861   Anisotropy =     7.5125

     16  H    Isotropic =    24.8111   Anisotropy =     5.7319

     17  H    Isotropic =    24.1752   Anisotropy =     7.5967

     18  H    Isotropic =    23.8684   Anisotropy =    11.5096

     19  H    Isotropic =    23.8232   Anisotropy =    12.0740

 The electronic state is 1-A.
 Alpha  occ. eigenvalues --  -25.26478 -19.60173 -14.78898 -10.65507 -10.64336
 Alpha  occ. eigenvalues --  -10.60666 -10.60438 -10.56654 -10.56580 -10.56341
 Alpha  occ. eigenvalues --  -10.54345  -7.10821  -5.10177  -5.09116  -5.09112
 Alpha  occ. eigenvalues --   -2.07007  -2.06565  -2.06564  -2.05681  -2.05680
 Alpha  occ. eigenvalues --   -1.38139  -1.16952  -1.05605  -0.97818  -0.87821
 Alpha  occ. eigenvalues --   -0.86539  -0.83201  -0.78141  -0.73074  -0.70894
 Alpha  occ. eigenvalues --   -0.67797  -0.63161  -0.60699  -0.59296  -0.58151
 Alpha  occ. eigenvalues --   -0.55887  -0.53219  -0.52355  -0.52094  -0.49954
 Alpha  occ. eigenvalues --   -0.48672  -0.46812  -0.46321  -0.45231  -0.43560
 Alpha  occ. eigenvalues --   -0.40123  -0.37994  -0.34279  -0.33600  -0.32562
 Alpha  occ. eigenvalues --   -0.32094  -0.28692
 Alpha virt. eigenvalues --   -0.00908  -0.00547   0.01009   0.05855   0.06101
 Alpha virt. eigenvalues --    0.09339   0.10430   0.11762   0.12673   0.13372
 Alpha virt. eigenvalues --    0.15007   0.15594   0.15883   0.16802   0.17631

 Mulliken charges:
               1
     1  C   -0.483062
     2  C    0.383713
     3  O   -0.383291
     4  N   -0.431877
     5  C    0.175196
     6  C   -0.189586
     7  C   -0.218341
     8  C    0.085002
     9  I   -0.089175
    10  C   -0.243758
    11  C    0.251842
    12  F   -0.193437
    13  H    0.147156
    14  H    0.179620
    15  H    0.169645
    16  H    0.274960
    17  H    0.183518
    18  H    0.188042
    19  H    0.193833
 Sum of Mulliken charges =   0.00000

 Dipole moment (field-independent basis, Debye):
    X=              1.8690    Y=              4.2349    Z=             -2.5626  Tot=              5.2910
 Quadrupole moment (field-independent basis, Debye-Ang):
   XX=            -76.9857   YY=            -84.6463   ZZ=            -95.0500
   XY=             14.5037   XZ=            -10.2029   YZ=              0.7859

 Normal termination of Gaussian 16 at Tue Sep 17 11:14:44 2024.
