 Gaussian 16, Revision C.02,

 ----------------------------------------------------------------------
 #p B3LYP/6-31G(d,p) EmpiricalDispersion=GD3BJ opt freq scf(xqc,tight)
 integral(grid=ultrafine)
 ----------------------------------------------------------------------

 ----------------------------------
 opt-freq conformers_unique/conf_aa
 ----------------------------------
 Symbolic Z-matrix:
 Charge =  0 Multiplicity = 1

 SCF Done:  E(RB3LYP) =  -3086.22152302     A.U. after   14 cycles
 SCF Done:  E(RB3LYP) =  -3086.22395361     A.U. after   12 cycles
 SCF Done:  E(RB3LYP) =  -3086.22416095     A.U. after   11 cycles
 SCF Done:  E(RB3LYP) =  -3086.22417699     A.U. after    9 cycles
 SCF Done:  E(RB3LYP) =  -3086.22418211     A.U. after    8 cycles
 SCF Done:  E(RB3LYP) =  -3086.22418321     A.U. after    8 cycles
 SCF Done:  E(RB3LYP) =  -3086.22418675     A.U. after    9 cycles
 SCF Done:  E(RB3LYP) =  -3086.22419123     A.U. after   10 cycles
 SCF Done:  E(RB3LYP) =  -3086.22419185     A.U. after    9 cycles
 SCF Done:  E(RB3LYP) =  -3086.22419452     A.U. after    7 cycles
 SCF Done:  E(RB3LYP) =  -3086.22419848     A.U. after   10 cycles
 SCF Done:  E(RB3LYP) =  -3086.22419859     A.U. after    8 cycles
 Optimization completed.
    -- Stationary point found.
 Normal termination of Gaussian 16 at Tue Sep 17 09:58:32 2024.

 ----------------------------------------------------------------------
 #P Geom=AllCheck Guess=TCheck SCRF=Check GenChk RB3LYP/6-31G(d,p) Freq
 ----------------------------------------------------------------------

 Structure from the checkpoint file:  "smiles_00011_conf_0.chk"
 ----------------------------------
 opt-freq conformers_unique/conf_aa
 ----------------------------------
 Charge =  0 Multiplicity = 1

 SCF Done:  E(RB3LYP) =  -3086.22419859     A.U. after    1 cycles

                      1                      2                      3
                      A                      A                      A
 Frequencies --     20.2216                72.7036                76.0548
 Red. masses --      4.2458                 4.5699                 7.1178
 Frc consts  --      0.0010                 0.0142                 0.0243
 IR Inten    --      0.3813                 0.0080                 0.2518

                      4                      5                      6
                      A                      A                      A
 Frequencies --    121.0284               207.6167               238.7765
 Red. masses --      3.8531                 3.2617                 3.7706
 Frc consts  --      0.0333                 0.0828                 0.1267
 IR Inten    --      0.0829                 0.0370                 1.9878

                      7                      8                      9
                      A                      A                      A
 Frequencies --    264.3167               293.8018               321.7891
 Red. masses --      6.5204                 3.4797                 2.8380
 Frc consts  --      0.2684                 0.1770                 0.1731
 IR Inten    --      3.3985                 0.1787                 2.7130

                     10                     11                     12
                      A                      A                      A
 Frequencies --    406.4513               421.8199               426.4732
 Red. masses --      5.1203                 4.1705                 1.8484
 Frc consts  --      0.4984                 0.4372                 0.1981
 IR Inten    --      6.4789                 0.0085                 3.5354

                     13                     14                     15
                      A                      A                      A
 Frequencies --    440.7851               513.1993               534.1836
 Red. masses --      2.8178                 2.2974                 3.8558
 Frc consts  --      0.3226                 0.3565                 0.6483
 IR Inten    --      0.8161                 1.3153                12.6033

                     16                     17                     18
                      A                      A                      A
 Frequencies --    543.0109               624.6744               660.2346
 Red. masses --      2.2970                 3.0692                 9.2310
 Frc consts  --      0.3990                 0.7056                 2.3708
 IR Inten    --      4.8543                 3.2966                 5.8774

                     19                     20                     21
                      A                      A                      A
 Frequencies --    778.5940               803.7186               823.0212
 Red. masses --      5.9784                11.3873                 1.5058
 Frc consts  --      2.1353                 4.3339                 0.6009
 IR Inten    --     26.8407                18.7252                 0.0508

                     22                     23                     24
                      A                      A                      A
 Frequencies --    840.1197               865.6431               905.4841
 Red. masses --      3.0799                 1.4200                 2.4845
 Frc consts  --      1.2808                 0.6269                 1.2002
 IR Inten    --      1.6835                 9.0153                 2.4045

                     25                     26                     27
                      A                      A                      A
 Frequencies --    963.0382               966.2357               973.7422
 Red. masses --      1.5084                 2.6180                 1.3060
 Frc consts  --      0.8243                 1.4401                 0.7296
 IR Inten    --      6.7320                15.0293                 3.1146

                     28                     29                     30
                      A                      A                      A
 Frequencies --    995.4128              1012.1522              1042.2112
 Red. masses --      1.3650                 7.1893                 2.5026
 Frc consts  --      0.7969                 4.3394                 1.6016
 IR Inten    --      0.0067                 0.2702                38.3059

                     31                     32                     33
                      A                      A                      A
 Frequencies --   1053.1395              1077.6517              1142.3627
 Red. masses --      2.2134                 1.6486                 2.5254
 Frc consts  --      1.4464                 1.1280                 1.9417
 IR Inten    --     27.0843                 0.0298                17.1447

                     34                     35                     36
                      A                      A                      A
 Frequencies --   1151.3883              1184.0368              1185.1595
 Red. masses --      2.1380                 2.2799                 1.2857
 Frc consts  --      1.6699                 1.8832                 1.0640
 IR Inten    --      5.4365                 1.5873                 0.0035

                     37                     38                     39
                      A                      A                      A
 Frequencies --   1232.5072              1272.9222              1288.4075
 Red. masses --      2.6525                 4.7096                 1.2591
 Frc consts  --      2.3740                 4.4961                 1.2315
 IR Inten    --      9.8478                 6.4360                13.2113

                     40                     41                     42
                      A                      A                      A
 Frequencies --   1311.5114              1312.1827              1337.3913
 Red. masses --      1.4224                 1.2328                 1.4423
 Frc consts  --      1.4415                 1.2507                 1.5200
 IR Inten    --    137.8720                 0.0192                30.2427

                     43                     44                     45
                      A                      A                      A
 Frequencies --   1361.3316              1386.0132              1389.0019
 Red. masses --      1.2919                 1.3161                 1.5043
 Frc consts  --      1.4106                 1.4896                 1.7100
 IR Inten    --      0.0020                 2.1432                 4.5716

                     46                     47                     48
                      A                      A                      A
 Frequencies --   1393.5908              1408.0793              1432.3397
 Red. masses --      1.4405                 1.4035                 4.1576
 Frc consts  --      1.6483                 1.6395                 5.0256
 IR Inten    --      0.8036               114.8902                 0.2556

                     49                     50                     51
                      A                      A                      A
 Frequencies --   1438.7379              1491.5738              1494.6575
 Red. masses --      1.7942                 1.0904                 1.1580
 Frc consts  --      2.1881                 1.4293                 1.5242
 IR Inten    --     78.1070                 0.2161                69.0518

                     52                     53                     54
                      A                      A                      A
 Frequencies --   1499.1225              1499.4273              1515.0609
 Red. masses --      1.0869                 1.0884                 1.1238
 Frc consts  --      1.4392                 1.4418                 1.5198
 IR Inten    --      7.5803                10.5067                10.3302

                     55                     56                     57
                      A                      A                      A
 Frequencies --   1568.6792              1569.9188              1645.7875
 Red. masses --      7.1202                 3.8125                 6.4162
 Frc consts  --     10.3231                 5.5362                10.2394
 IR Inten    --     78.4912               546.1932               458.5581

                     58                     59                     60
                      A                      A                      A
 Frequencies --   3019.8847              3021.4684              3025.4420
 Red. masses --      1.0728                 1.0682                 1.0729
 Frc consts  --      5.7643                 5.7458                 5.7863
 IR Inten    --     12.1663                 7.4954               105.8870

                     61                     62                     63
                      A                      A                      A
 Frequencies --   3040.6683              3041.6034              3079.8297
 Red. masses --      1.0604                 1.0617                 1.0946
 Frc consts  --      5.7766                 5.7868                 6.1173
 IR Inten    --     27.0239                24.8433                56.8417

                     64                     65                     66
                      A                      A                      A
 Frequencies --   3086.2267              3091.3096              3172.1219
 Red. masses --      1.1040                 1.1051                 1.0912
 Frc consts  --      6.1955                 6.2224                 6.4695
 IR Inten    --     30.3350                85.2892                 8.5991

                     67                     68                     69
                      A                      A                      A
 Frequencies --   3172.3198              3174.9658              3176.3517
 Red. masses --      1.0927                 1.0919                 1.0926
 Frc consts  --      6.4787                 6.4852                 6.4948
 IR Inten    --      0.7615                10.4868                12.1689

 - Thermochemistry -
 -------------------
 Temperature   298.150 Kelvin.  Pressure   1.00000 Atm.
 Atom     1 has atomic number 35 and mass  78.91834

 Molecular mass:   241.02146 amu.
 Principal axes and moments of inertia in atomic units:
                           1         2         3
     Eigenvalues --   861.384418061.390388508.16874
           X            0.99997   0.00000   0.00833
           Y           -0.00000   1.00000  -0.00000
           Z           -0.00833   0.00000   0.99997
 This molecule is an asymmetric top.
 Rotational symmetry number  1.
 Warning -- assumption of classical behavior for rotation
           may cause significant error
 Rotational temperatures (Kelvin)      0.10055     0.01074     0.01018
 Rotational constants (GHZ):           2.09516     0.22387     0.21212
 Zero-point vibrational energy     543706.9 (Joules/Mol)
                                  129.94906 (Kcal/Mol)
 Warning -- explicit consideration of  16 degrees of freedom as
           vibrations may cause significant error
 Vibrational temperatures:     29.09   104.60   109.43   174.13   298.71
          (Kelvin)            343.55   380.29   422.72   462.98   584.79
                              606.90   613.60   634.19   738.38   768.57
                              781.27   898.77   949.93  1120.22  1156.37
                             1184.14  1208.74  1245.47  1302.79  1385.60
                             1390.20  1401.00  1432.18  1456.26  1499.51
                             1515.23  1550.50  1643.61  1656.59  1703.56
                             1705.18  1773.30  1831.45  1853.73  1886.97
                             1887.94  1924.21  1958.65  1994.16  1998.46
                             2005.07  2025.91  2060.82  2070.02  2146.04
                             2150.48  2156.90  2157.34  2179.83  2256.98
                             2258.76  2367.92  4344.94  4347.22  4352.94
                             4374.84  4376.19  4431.19  4440.39  4447.71
                             4563.98  4564.26  4568.07  4570.06

 Zero-point correction=                           0.207087 (Hartree/Particle)
 Thermal correction to Energy=                    0.218392
 Thermal correction to Enthalpy=                  0.219337
 Thermal correction to Gibbs Free Energy=         0.167427
 Sum of electronic and zero-point Energies=          -3086.017112
 Sum of electronic and thermal Energies=             -3086.005806
 Sum of electronic and thermal Enthalpies=           -3086.004862
 Sum of electronic and thermal Free Energies=        -3086.056771

                     E (Thermal)             CV                S
                      KCal/Mol        Cal/Mol-Kelvin    Cal/Mol-Kelvin
 Total                  137.043             43.212            109.252
 Electronic               0.000              0.000              0.000
 Translational            0.889              2.981             42.340
 Rotational               0.889              2.981             32.446
 Vibrational            135.266             37.251             34.466
 Vibration     1          0.593              1.986              6.612
 Vibration     2          0.599              1.967              4.079
 Vibration     3          0.599              1.965              3.990
 Vibration     4          0.609              1.932              3.084
 Vibration     5          0.641              1.829              2.065
 Vibration     6          0.657              1.781              1.812
 Vibration     7          0.671              1.738              1.633
 Vibration     8          0.689              1.685              1.452
 Vibration     9          0.707              1.632              1.301
 Vibration    10          0.771              1.456              0.939
 Vibration    11          0.784              1.423              0.886
 Vibration    12          0.788              1.413              0.870
 Vibration    13          0.801              1.381              0.824
 Vibration    14          0.868              1.221              0.626
 Vibration    15          0.889              1.174              0.578
 Vibration    16          0.898              1.155              0.559

                           ! Non-Optimized Parameters !
 Normal termination of Gaussian 16 at Tue Sep 17 10:00:27 2024.

 ----------------------------------------------------------------------
 #p M062X/def2tzvp geom=check guess=read scf(xqc,tight) integral(grid=u
 ltrafine) scrf(SMD, solvent=1,4-Dioxane) polar prop=efg volume
 ----------------------------------------------------------------------

 ---
 spe
 ---
 Structure from the checkpoint file:  "smiles_00011_conf_0.chk"
 Charge =  0 Multiplicity = 1

 SCF Done:  E(RM062X) =  -3088.62563849     A.U. after   12 cycles

  Exact polarizability:     252.304      -0.000     152.245      -8.614       0.002     111.987
 Approx polarizability:     231.687      -0.000     175.721     -14.138       0.003     133.443

 Normal termination of Gaussian 16 at Tue Sep 17 10:55:48 2024.
 Gaussian 16:  ES64L-G16RevC.02  7-Dec-2021

 ----------------------------------------------------------------------
 #p M062X/def2tzvp geom=check guess=read scf(xqc,tight) integral(grid=u
 ltrafine) scrf(SMD, solvent=1,4-Dioxane) nmr=giao
 ----------------------------------------------------------------------

 ---
 spe
 ---
 Structure from the checkpoint file:  "smiles_00011_conf_0.chk"
 Charge =  0 Multiplicity = 1

                         Standard orientation:
 ---------------------------------------------------------------------
 Center     Atomic      Atomic             Coordinates (Angstroms)
 Number     Number       Type             X           Y           Z
 ---------------------------------------------------------------------
      1         35           0       -3.810727    0.000012    0.226705
      2          6           0       -1.930714    0.000015   -0.054660
      3          6           0       -1.208430    1.187305   -0.157955
      4          7           0        0.105469    1.201803   -0.350258
      5          6           0        0.724647    0.000003   -0.448896
      6          7           0        2.068228   -0.000046   -0.679196
      7          6           0        2.858281    1.228567   -0.624541
      8          6           0        3.700000    1.265607    0.657492
      9          6           0        4.559447    0.000022    0.785122
     10          6           0        3.699910   -1.265526    0.657750
     11          6           0        2.858181   -1.228707   -0.624285
     12          7           0        0.105428   -1.201795   -0.350474
     13          6           0       -1.208459   -1.187285   -0.158142
     14          1           0       -1.708535    2.150073   -0.079207
     15          1           0        3.518223    1.243358   -1.503019
     16          1           0        2.181172    2.077545   -0.687149
     17          1           0        4.329243    2.162940    0.656687
     18          1           0        3.022052    1.345011    1.516487
     19          1           0        5.317317   -0.000085   -0.011096
     20          1           0        5.103361    0.000094    1.735916
     21          1           0        3.021967   -1.344703    1.516772
     22          1           0        4.329088   -2.162905    0.657128
     23          1           0        2.180986   -2.077636   -0.686696
     24          1           0        3.518102   -1.243772   -1.502774
     25          1           0       -1.708598   -2.150049   -0.079545
 ---------------------------------------------------------------------

 SCF Done:  E(RM062X) =  -3088.62563849     A.U. after    1 cycles

      1  Br   Isotropic =  2243.3858   Anisotropy =  1108.2268

      2  C    Isotropic =    48.3333   Anisotropy =   107.1837

      3  C    Isotropic =     1.1208   Anisotropy =   189.9857

      4  N    Isotropic =   -53.1181   Anisotropy =   470.2093

      5  C    Isotropic =     4.9802   Anisotropy =   156.9109

      6  N    Isotropic =   133.7527   Anisotropy =    75.4073

      7  C    Isotropic =   138.6443   Anisotropy =    29.7699

      8  C    Isotropic =   158.0906   Anisotropy =    11.1597

      9  C    Isotropic =   158.5140   Anisotropy =     5.6700

     10  C    Isotropic =   158.0902   Anisotropy =    11.1566

     11  C    Isotropic =   138.6433   Anisotropy =    29.7741

     12  N    Isotropic =   -53.1266   Anisotropy =   470.2181

     13  C    Isotropic =     1.1200   Anisotropy =   189.9855

     14  H    Isotropic =    22.8800   Anisotropy =    10.5443

     15  H    Isotropic =    29.1415   Anisotropy =     8.5544

     16  H    Isotropic =    26.7060   Anisotropy =     7.9075

     17  H    Isotropic =    30.3822   Anisotropy =    10.3787

     18  H    Isotropic =    30.5509   Anisotropy =     7.3903

     19  H    Isotropic =    30.3757   Anisotropy =     8.7186

     20  H    Isotropic =    30.0608   Anisotropy =    10.4315

     21  H    Isotropic =    30.5511   Anisotropy =     7.3899

     22  H    Isotropic =    30.3822   Anisotropy =    10.3786

     23  H    Isotropic =    26.7051   Anisotropy =     7.9091

     24  H    Isotropic =    29.1416   Anisotropy =     8.5543

     25  H    Isotropic =    22.8800   Anisotropy =    10.5444

 The electronic state is 1-A.
 Alpha  occ. eigenvalues -- -485.37983 -63.36455 -57.18406 -57.18161 -57.18158
 Alpha  occ. eigenvalues --  -14.77199 -14.75416 -14.75415 -10.65031 -10.60067
 Alpha  occ. eigenvalues --  -10.60063 -10.59421 -10.56290 -10.56289 -10.53099
 Alpha  occ. eigenvalues --  -10.53082 -10.53047  -9.03102  -6.85526  -6.84620
 Alpha  occ. eigenvalues --   -6.84610  -2.88903  -2.88566  -2.88563  -2.87713
 Alpha  occ. eigenvalues --   -2.87713  -1.12258  -1.04484  -0.99973  -0.93021
 Alpha  occ. eigenvalues --   -0.89391  -0.85550  -0.83372  -0.76150  -0.75868
 Alpha  occ. eigenvalues --   -0.70958  -0.69681  -0.65511  -0.60861  -0.60283
 Alpha  occ. eigenvalues --   -0.54982  -0.53273  -0.52409  -0.52350  -0.50137
 Alpha  occ. eigenvalues --   -0.49014  -0.48698  -0.47523  -0.46873  -0.44751
 Alpha  occ. eigenvalues --   -0.41907  -0.41137  -0.39685  -0.38921  -0.38560
 Alpha  occ. eigenvalues --   -0.38034  -0.38029  -0.36186  -0.33871  -0.31658
 Alpha  occ. eigenvalues --   -0.26082
 Alpha virt. eigenvalues --   -0.01333   0.02160   0.03773   0.07192   0.09017
 Alpha virt. eigenvalues --    0.09932   0.10223   0.11625   0.12341   0.12562
 Alpha virt. eigenvalues --    0.13997   0.14025   0.14214   0.15640   0.15688

 Mulliken charges:
               1
     1  Br  -0.105840
     2  C   -0.009306
     3  C   -0.066829
     4  N   -0.338261
     5  C    0.422858
     6  N   -0.121773
     7  C   -0.267869
     8  C   -0.272093
     9  C   -0.272300
    10  C   -0.272084
    11  C   -0.267889
    12  N   -0.338263
    13  C   -0.066830
    14  H    0.178727
    15  H    0.168421
    16  H    0.186818
    17  H    0.148352
    18  H    0.157238
    19  H    0.146858
    20  H    0.150501
    21  H    0.157233
    22  H    0.148353
    23  H    0.186834
    24  H    0.168416
    25  H    0.178726
 Sum of Mulliken charges =  -0.00000

 Dipole moment (field-independent basis, Debye):
    X=              2.7422    Y=             -0.0001    Z=              0.2230  Tot=              2.7512
 Quadrupole moment (field-independent basis, Debye-Ang):
   XX=            -82.9361   YY=            -88.6133   ZZ=            -91.4858
   XY=             -0.0001   XZ=             -0.3097   YZ=             -0.0004

 Normal termination of Gaussian 16 at Tue Sep 17 11:17:05 2024.
