 Gaussian 16, Revision C.02,

 ----------------------------------------------------------------------
 #p B3LYP/6-31G(d,p) EmpiricalDispersion=GD3BJ opt freq scf(xqc,tight)
 integral(grid=ultrafine)
 ----------------------------------------------------------------------

 ----------------------------------
 opt-freq conformers_unique/conf_ae
 ----------------------------------
 Symbolic Z-matrix:
 Charge =  0 Multiplicity = 1

 SCF Done:  E(RB3LYP) =  -1163.67150615     A.U. after   15 cycles
 SCF Done:  E(RB3LYP) =  -1163.67181824     A.U. after   13 cycles
 SCF Done:  E(RB3LYP) =  -1163.67339381     A.U. after   13 cycles
 SCF Done:  E(RB3LYP) =  -1163.67329706     A.U. after   13 cycles
 SCF Done:  E(RB3LYP) =  -1163.67386560     A.U. after   12 cycles
 SCF Done:  E(RB3LYP) =  -1163.67400224     A.U. after   10 cycles
 SCF Done:  E(RB3LYP) =  -1163.67409431     A.U. after   12 cycles
 SCF Done:  E(RB3LYP) =  -1163.67378582     A.U. after   15 cycles
 SCF Done:  E(RB3LYP) =  -1163.67419534     A.U. after   12 cycles
 SCF Done:  E(RB3LYP) =  -1163.67422717     A.U. after   10 cycles
 SCF Done:  E(RB3LYP) =  -1163.67424941     A.U. after   10 cycles
 SCF Done:  E(RB3LYP) =  -1163.67425961     A.U. after   11 cycles
 SCF Done:  E(RB3LYP) =  -1163.67426077     A.U. after    9 cycles
 SCF Done:  E(RB3LYP) =  -1163.67426126     A.U. after    8 cycles
 SCF Done:  E(RB3LYP) =  -1163.67426141     A.U. after    8 cycles
 Optimization completed.
    -- Stationary point found.
 Normal termination of Gaussian 16 at Tue Sep 17 09:46:45 2024.

 ----------------------------------------------------------------------
 #P Geom=AllCheck Guess=TCheck SCRF=Check GenChk RB3LYP/6-31G(d,p) Freq
 ----------------------------------------------------------------------

 Structure from the checkpoint file:  "smiles_00058_conf_4.chk"
 ----------------------------------
 opt-freq conformers_unique/conf_ae
 ----------------------------------
 Charge =  0 Multiplicity = 1

 SCF Done:  E(RB3LYP) =  -1163.67426141     A.U. after    1 cycles

                      1                      2                      3
                      A                      A                      A
 Frequencies --     29.0642                43.2498                84.4679
 Red. masses --      4.5504                 6.2989                 4.7716
 Frc consts  --      0.0023                 0.0069                 0.0201
 IR Inten    --      3.4682                 3.0241                 0.8384

                      4                      5                      6
                      A                      A                      A
 Frequencies --     94.0030               121.5369               127.5414
 Red. masses --      5.1994                 2.9393                 1.4138
 Frc consts  --      0.0271                 0.0256                 0.0136
 IR Inten    --      1.1201                 3.2815                 0.7257

                      7                      8                      9
                      A                      A                      A
 Frequencies --    145.6388               156.3029               189.2662
 Red. masses --      3.6198                 9.2580                 3.6664
 Frc consts  --      0.0452                 0.1333                 0.0774
 IR Inten    --      3.6613                 2.1159                 3.5433

                     10                     11                     12
                      A                      A                      A
 Frequencies --    204.2239               217.6617               244.0861
 Red. masses --      1.8421                 2.1664                 5.0922
 Frc consts  --      0.0453                 0.0605                 0.1787
 IR Inten    --      0.6053                 0.8385                 7.2436

                     13                     14                     15
                      A                      A                      A
 Frequencies --    295.0300               329.2616               360.6009
 Red. masses --      5.1688                 5.7365                 6.2749
 Frc consts  --      0.2651                 0.3664                 0.4807
 IR Inten    --      2.0599                 5.5249                16.1572

                     16                     17                     18
                      A                      A                      A
 Frequencies --    397.6118               420.3994               473.1517
 Red. masses --      7.6036                 7.3884                 6.2207
 Frc consts  --      0.7083                 0.7693                 0.8205
 IR Inten    --      5.8644                 2.4080                 0.8285

                     19                     20                     21
                      A                      A                      A
 Frequencies --    508.4363               540.8986               593.1031
 Red. masses --      8.2530                 6.8397                 6.8881
 Frc consts  --      1.2570                 1.1790                 1.4276
 IR Inten    --      0.9736                15.1972                 5.1377

                     22                     23                     24
                      A                      A                      A
 Frequencies --    656.0015               698.6617               764.9662
 Red. masses --      7.7385                 6.7391                 7.2492
 Frc consts  --      1.9621                 1.9381                 2.4993
 IR Inten    --     23.3150                13.7052                48.0762

                     25                     26                     27
                      A                      A                      A
 Frequencies --    785.4528               790.9382               827.0956
 Red. masses --      4.3989                 7.3355                 9.2651
 Frc consts  --      1.5989                 2.7038                 3.7343
 IR Inten    --     13.6453                 1.5878                99.9397

                     28                     29                     30
                      A                      A                      A
 Frequencies --    898.2548               924.0703               948.1335
 Red. masses --      6.5766                 1.5618                 1.3970
 Frc consts  --      3.1264                 0.7858                 0.7399
 IR Inten    --      2.7335                16.4895                 0.4988

                     31                     32                     33
                      A                      A                      A
 Frequencies --   1016.2599              1022.5433              1061.1147
 Red. masses --      8.0530                 7.0015                 7.1370
 Frc consts  --      4.9003                 4.3133                 4.7347
 IR Inten    --     25.9464                33.7405                43.8275

                     34                     35                     36
                      A                      A                      A
 Frequencies --   1120.3794              1163.1260              1173.3988
 Red. masses --      1.4079                 1.8804                 1.2879
 Frc consts  --      1.0413                 1.4988                 1.0448
 IR Inten    --      4.0273                38.5064                 1.1702

                     37                     38                     39
                      A                      A                      A
 Frequencies --   1179.1171              1182.9610              1210.5499
 Red. masses --      1.2772                 1.9777                 1.5112
 Frc consts  --      1.0462                 1.6306                 1.3048
 IR Inten    --      0.9593                50.0576                11.2485

                     40                     41                     42
                      A                      A                      A
 Frequencies --   1231.2099              1284.8538              1328.9104
 Red. masses --      2.7117                 3.4167                10.4167
 Frc consts  --      2.4219                 3.3233                10.8385
 IR Inten    --    103.6098               154.6037                 8.4719

                     43                     44                     45
                      A                      A                      A
 Frequencies --   1362.2269              1443.6576              1465.3664
 Red. masses --      5.4324                 3.3699                 4.1685
 Frc consts  --      5.9394                 4.1380                 5.2738
 IR Inten    --    735.3644                 5.4271                 3.5782

                     46                     47                     48
                      A                      A                      A
 Frequencies --   1485.5716              1496.1308              1500.1856
 Red. masses --      1.3484                 1.0469                 1.1894
 Frc consts  --      1.7534                 1.3807                 1.5771
 IR Inten    --     39.5059                 7.0311                 5.2710

                     49                     50                     51
                      A                      A                      A
 Frequencies --   1502.9707              1505.2547              1507.9667
 Red. masses --      1.0551                 1.0928                 1.0585
 Frc consts  --      1.4042                 1.4588                 1.4182
 IR Inten    --     34.2248                21.8248                13.9016

                     52                     53                     54
                      A                      A                      A
 Frequencies --   1614.6797              1617.4990              1805.8925
 Red. masses --      6.9634                 8.8419                11.8285
 Frc consts  --     10.6966                13.6296                22.7281
 IR Inten    --     64.5871                30.4621               241.6399

                     55                     56                     57
                      A                      A                      A
 Frequencies --   1811.0376              3068.4761              3069.3677
 Red. masses --     12.5135                 1.0299                 1.0310
 Frc consts  --     24.1815                 5.7133                 5.7230
 IR Inten    --    198.1753                26.1066                37.3522

                     58                     59                     60
                      A                      A                      A
 Frequencies --   3147.1131              3151.2045              3182.8089
 Red. masses --      1.1071                 1.1062                 1.1070
 Frc consts  --      6.4604                 6.4718                 6.6072
 IR Inten    --     17.0125                35.7851                11.8770

                     61                     62                     63
                      A                      A                      A
 Frequencies --   3183.3098              3249.5969              3252.8584
 Red. masses --      1.1072                 1.0930                 1.0930
 Frc consts  --      6.6106                 6.8006                 6.8139
 IR Inten    --     12.0872                 4.6521                 5.8348

 - Thermochemistry -
 -------------------
 Temperature   298.150 Kelvin.  Pressure   1.00000 Atm.
 Atom     1 has atomic number  6 and mass  12.00000

 Molecular mass:   229.01419 amu.
 Principal axes and moments of inertia in atomic units:
                           1         2         3
     Eigenvalues --  3423.281124029.760667275.95042
           X            0.99976   0.02191  -0.00051
           Y           -0.02190   0.99970   0.01111
           Z            0.00076  -0.01110   0.99994
 This molecule is an asymmetric top.
 Rotational symmetry number  1.
 Warning -- assumption of classical behavior for rotation
           may cause significant error
 Rotational temperatures (Kelvin)      0.02530     0.02149     0.01190
 Rotational constants (GHZ):           0.52720     0.44785     0.24804
 Zero-point vibrational energy     432250.9 (Joules/Mol)
                                  103.31045 (Kcal/Mol)
 Warning -- explicit consideration of  21 degrees of freedom as
           vibrations may cause significant error
 Vibrational temperatures:     41.82    62.23   121.53   135.25   174.86
          (Kelvin)            183.50   209.54   224.88   272.31   293.83
                              313.17   351.19   424.48   473.73   518.82
                              572.07   604.86   680.76   731.53   778.23
                              853.34   943.84  1005.22  1100.62  1130.09
                             1137.98  1190.01  1292.39  1329.53  1364.15
                             1462.17  1471.21  1526.71  1611.98  1673.48
                             1688.26  1696.49  1702.02  1741.71  1771.44
                             1848.62  1912.01  1959.94  2077.10  2108.34
                             2137.41  2152.60  2158.43  2162.44  2165.73
                             2169.63  2323.16  2327.22  2598.28  2605.68
                             4414.85  4416.14  4527.99  4533.88  4579.35
                             4580.07  4675.45  4680.14

 Zero-point correction=                           0.164636 (Hartree/Particle)
 Thermal correction to Energy=                    0.179137
 Thermal correction to Enthalpy=                  0.180081
 Thermal correction to Gibbs Free Energy=         0.121293
 Sum of electronic and zero-point Energies=          -1163.509626
 Sum of electronic and thermal Energies=             -1163.495124
 Sum of electronic and thermal Enthalpies=           -1163.494180
 Sum of electronic and thermal Free Energies=        -1163.552968

                     E (Thermal)             CV                S
                      KCal/Mol        Cal/Mol-Kelvin    Cal/Mol-Kelvin
 Total                  112.410             50.837            123.729
 Electronic               0.000              0.000              0.000
 Translational            0.889              2.981             42.188
 Rotational               0.889              2.981             32.973
 Vibrational            110.633             44.876             48.568
 Vibration     1          0.593              1.984              5.892
 Vibration     2          0.595              1.980              5.104
 Vibration     3          0.601              1.960              3.784
 Vibration     4          0.603              1.953              3.575
 Vibration     5          0.609              1.931              3.076
 Vibration     6          0.611              1.926              2.983
 Vibration     7          0.617              1.907              2.728
 Vibration     8          0.620              1.896              2.594
 Vibration     9          0.633              1.855              2.235
 Vibration    10          0.640              1.834              2.095
 Vibration    11          0.646              1.814              1.978
 Vibration    12          0.659              1.773              1.773
 Vibration    13          0.689              1.683              1.445
 Vibration    14          0.712              1.617              1.264
 Vibration    15          0.735              1.553              1.120
 Vibration    16          0.764              1.475              0.971
 Vibration    17          0.783              1.426              0.891
 Vibration    18          0.830              1.310              0.729
 Vibration    19          0.864              1.231              0.637
 Vibration    20          0.896              1.160              0.563
 Vibration    21          0.951              1.046              0.462

                           ! Non-Optimized Parameters !
 Normal termination of Gaussian 16 at Tue Sep 17 09:49:15 2024.

 ----------------------------------------------------------------------
 #p M062X/def2tzvp geom=check guess=read scf(xqc,tight) integral(grid=u
 ltrafine) scrf(SMD, solvent=1,4-Dioxane) polar prop=efg volume
 ----------------------------------------------------------------------

 ---
 spe
 ---
 Structure from the checkpoint file:  "smiles_00058_conf_4.chk"
 Charge =  0 Multiplicity = 1

 SCF Done:  E(RM062X) =  -1163.63435869     A.U. after   12 cycles

  Exact polarizability:     193.579      -9.371     179.819      -3.813      -2.077      90.023
 Approx polarizability:     199.808      -4.535     195.958      -4.206      -4.956     111.610

 Normal termination of Gaussian 16 at Tue Sep 17 11:13:38 2024.
 Gaussian 16:  ES64L-G16RevC.02  7-Dec-2021

 ----------------------------------------------------------------------
 #p M062X/def2tzvp geom=check guess=read scf(xqc,tight) integral(grid=u
 ltrafine) scrf(SMD, solvent=1,4-Dioxane) nmr=giao
 ----------------------------------------------------------------------

 ---
 spe
 ---
 Structure from the checkpoint file:  "smiles_00058_conf_4.chk"
 Charge =  0 Multiplicity = 1

                         Standard orientation:
 ---------------------------------------------------------------------
 Center     Atomic      Atomic             Coordinates (Angstroms)
 Number     Number       Type             X           Y           Z
 ---------------------------------------------------------------------
      1          6           0       -0.691080    3.170774    0.823417
      2          8           0        0.513915    3.329053    0.050512
      3          6           0        1.356594    2.330550   -0.256229
      4          8           0        2.459041    2.589990   -0.688368
      5          6           0        0.935483    0.886095   -0.100086
      6          6           0        1.958176   -0.068290   -0.019147
      7          6           0        1.586839   -1.404763    0.065146
      8         17           0        2.807706   -2.646004    0.185679
      9          6           0        0.239599   -1.754894    0.047162
     10          6           0       -0.693077   -0.719796   -0.051513
     11          6           0       -2.148026   -1.093996   -0.074298
     12          8           0       -2.533767   -2.245094   -0.029358
     13          8           0       -2.955432   -0.026743   -0.143519
     14          6           0       -4.360392   -0.334502   -0.172676
     15          7           0       -0.361336    0.572933   -0.119288
     16          1           0       -1.494738    2.755865    0.217492
     17          1           0       -0.526797    2.523972    1.688219
     18          1           0       -0.934838    4.178858    1.161789
     19          1           0        2.993084    0.246516   -0.037230
     20          1           0       -0.095843   -2.782113    0.105068
     21          1           0       -4.867494    0.627011   -0.235979
     22          1           0       -4.596803   -0.954862   -1.039996
     23          1           0       -4.652974   -0.868419    0.734309
 ---------------------------------------------------------------------

 SCF Done:  E(RM062X) =  -1163.63435869     A.U. after    1 cycles

      1  C    Isotropic =   122.2398   Anisotropy =    75.1636

      2  O    Isotropic =   135.3535   Anisotropy =   180.5340

      3  C    Isotropic =     1.0724   Anisotropy =    99.2626

      4  O    Isotropic =  -174.2030   Anisotropy =   687.2042

      5  C    Isotropic =    10.6576   Anisotropy =   172.6440

      6  C    Isotropic =    30.4884   Anisotropy =   197.8410

      7  C    Isotropic =     6.0679   Anisotropy =   175.2143

      8  Cl   Isotropic =   648.9592   Anisotropy =   489.2523

      9  C    Isotropic =    34.0685   Anisotropy =   197.0475

     10  C    Isotropic =    15.4900   Anisotropy =   169.3854

     11  C    Isotropic =     0.2253   Anisotropy =   102.9840

     12  O    Isotropic =  -135.7450   Anisotropy =   699.9558

     13  O    Isotropic =   131.3037   Anisotropy =   184.4102

     14  C    Isotropic =   129.5589   Anisotropy =    73.9361

     15  N    Isotropic =  -135.8506   Anisotropy =   650.0685

     16  H    Isotropic =    26.3834   Anisotropy =     7.8558

     17  H    Isotropic =    27.8155   Anisotropy =     5.1871

     18  H    Isotropic =    27.8083   Anisotropy =     7.5625

     19  H    Isotropic =    22.5926   Anisotropy =    11.6312

     20  H    Isotropic =    22.5062   Anisotropy =    11.8657

     21  H    Isotropic =    27.8879   Anisotropy =     7.4528

     22  H    Isotropic =    27.8382   Anisotropy =     8.2055

     23  H    Isotropic =    27.8573   Anisotropy =     8.0779

 The electronic state is 1-A.
 Alpha  occ. eigenvalues -- -102.66887 -19.68708 -19.67639 -19.63432 -19.62320
 Alpha  occ. eigenvalues --  -14.78633 -10.69280 -10.68949 -10.64437 -10.62147
 Alpha  occ. eigenvalues --  -10.62053 -10.59571 -10.59104 -10.58749 -10.58688
 Alpha  occ. eigenvalues --   -9.83128  -7.55332  -7.54813  -7.54783  -1.24887
 Alpha  occ. eigenvalues --   -1.23500  -1.15570  -1.14862  -1.09499  -1.00320
 Alpha  occ. eigenvalues --   -0.91615  -0.90089  -0.83874  -0.82650  -0.77167
 Alpha  occ. eigenvalues --   -0.75824  -0.67861  -0.65669  -0.62763  -0.62345
 Alpha  occ. eigenvalues --   -0.59143  -0.58411  -0.58204  -0.57035  -0.56747
 Alpha  occ. eigenvalues --   -0.55465  -0.52079  -0.51603  -0.50599  -0.49099
 Alpha  occ. eigenvalues --   -0.48376  -0.47784  -0.47385  -0.44433  -0.44360
 Alpha  occ. eigenvalues --   -0.43107  -0.40138  -0.39828  -0.39073  -0.37622
 Alpha  occ. eigenvalues --   -0.37047  -0.35136  -0.35001  -0.34454
 Alpha virt. eigenvalues --   -0.05143  -0.04427   0.04158   0.05138   0.07028
 Alpha virt. eigenvalues --    0.08908   0.09353   0.10392   0.10917   0.12275
 Alpha virt. eigenvalues --    0.12512   0.12755   0.13824   0.15242   0.15636

 Mulliken charges:
               1
     1  C   -0.276194
     2  O   -0.227393
     3  C    0.347153
     4  O   -0.334982
     5  C    0.085869
     6  C   -0.180101
     7  C    0.104591
     8  Cl  -0.049397
     9  C   -0.185683
    10  C    0.114571
    11  C    0.347408
    12  O   -0.356858
    13  O   -0.247197
    14  C   -0.272669
    15  N   -0.263921
    16  H    0.168176
    17  H    0.166315
    18  H    0.162862
    19  H    0.205068
    20  H    0.205663
    21  H    0.159990
    22  H    0.164072
    23  H    0.162658
 Sum of Mulliken charges =  -0.00000

 Dipole moment (field-independent basis, Debye):
    X=             -3.6811    Y=             -0.9275    Z=              1.9012  Tot=              4.2456
 Quadrupole moment (field-independent basis, Debye-Ang):
   XX=            -86.9849   YY=           -104.4043   ZZ=            -91.4645
   XY=            -15.0101   XZ=              2.7613   YZ=              6.3334

 Normal termination of Gaussian 16 at Tue Sep 17 11:45:21 2024.
