 Gaussian 16, Revision C.02,

 ----------------------------------------------------------------------
 #p B3LYP/6-31G(d,p) EmpiricalDispersion=GD3BJ opt freq scf(xqc,tight)
 integral(grid=ultrafine)
 ----------------------------------------------------------------------

 ----------------------------------
 opt-freq conformers_unique/conf_aa
 ----------------------------------
 Symbolic Z-matrix:
 Charge =  0 Multiplicity = 1

 SCF Done:  E(RB3LYP) =  -2989.72114051     A.U. after   15 cycles
 SCF Done:  E(RB3LYP) =  -2989.72277791     A.U. after   12 cycles
 SCF Done:  E(RB3LYP) =  -2989.72295317     A.U. after   11 cycles
 SCF Done:  E(RB3LYP) =  -2989.72296406     A.U. after    9 cycles
 SCF Done:  E(RB3LYP) =  -2989.72296393     A.U. after    8 cycles
 SCF Done:  E(RB3LYP) =  -2989.72296481     A.U. after    8 cycles
 Optimization completed.
    -- Stationary point found.
 Normal termination of Gaussian 16 at Tue Sep 17 09:52:29 2024.

 ----------------------------------------------------------------------
 #P Geom=AllCheck Guess=TCheck SCRF=Check GenChk RB3LYP/6-31G(d,p) Freq
 ----------------------------------------------------------------------

 Structure from the checkpoint file:  "smiles_00072_conf_0.chk"
 ----------------------------------
 opt-freq conformers_unique/conf_aa
 ----------------------------------
 Charge =  0 Multiplicity = 1

 SCF Done:  E(RB3LYP) =  -2989.72296481     A.U. after    1 cycles

                      1                      2                      3
                      A                      A                      A
 Frequencies --     75.3151               121.5184               134.4707
 Red. masses --     11.8914                10.2360                 7.4973
 Frc consts  --      0.0397                 0.0891                 0.0799
 IR Inten    --      1.8365                 0.6548                 2.8063

                      4                      5                      6
                      A                      A                      A
 Frequencies --    251.0747               272.4016               328.8700
 Red. masses --      6.2570                 9.7254                10.2957
 Frc consts  --      0.2324                 0.4252                 0.6561
 IR Inten    --      0.0013                 2.0047                 2.8333

                      7                      8                      9
                      A                      A                      A
 Frequencies --    447.2860               532.4665               560.7714
 Red. masses --      6.1655                10.0577                 1.6016
 Frc consts  --      0.7268                 1.6801                 0.2967
 IR Inten    --     16.7078                 2.6486                47.9786

                     10                     11                     12
                      A                      A                      A
 Frequencies --    631.4363               653.7526               702.1341
 Red. masses --      2.9952                 3.6591                 3.9444
 Frc consts  --      0.7036                 0.9214                 1.1457
 IR Inten    --     15.5290                35.3301                61.0772

                     13                     14                     15
                      A                      A                      A
 Frequencies --    757.8747               822.7316               905.2629
 Red. masses --      5.8157                 1.2646                 1.3955
 Frc consts  --      1.9681                 0.5043                 0.6738
 IR Inten    --     50.8403                29.4073                 0.3817

                     16                     17                     18
                      A                      A                      A
 Frequencies --    947.0244               967.8878              1042.8745
 Red. masses --      6.5191                 7.4826                 1.2952
 Frc consts  --      3.4448                 4.1300                 0.8299
 IR Inten    --     24.6825                20.1357                43.3193

                     19                     20                     21
                      A                      A                      A
 Frequencies --   1130.0895              1174.8773              1237.7342
 Red. masses --      3.1758                 3.6075                 2.8814
 Frc consts  --      2.3896                 2.9339                 2.6008
 IR Inten    --    147.6693               128.1238                36.8622

                     22                     23                     24
                      A                      A                      A
 Frequencies --   1242.7527              1399.6469              1407.7393
 Red. masses --      1.9954                 3.7802                 3.7307
 Frc consts  --      1.8157                 4.3631                 4.3560
 IR Inten    --     66.5560                 6.3306               102.7878

                     25                     26                     27
                      A                      A                      A
 Frequencies --   1510.3085              1637.7660              1815.6286
 Red. masses --      7.2937                 7.0596                10.1370
 Frc consts  --      9.8023                11.1566                19.6886
 IR Inten    --    254.8265                74.3338               388.8858

                     28                     29                     30
                      A                      A                      A
 Frequencies --   3282.5640              3295.4913              3765.5721
 Red. masses --      1.0943                 1.1020                 1.0643
 Frc consts  --      6.9472                 7.0515                 8.8912
 IR Inten    --      0.1485                 1.2808                91.9765

 - Thermochemistry -
 -------------------
 Temperature   298.150 Kelvin.  Pressure   1.00000 Atm.
 Atom     1 has atomic number  8 and mass  15.99491

 Molecular mass:   189.92656 amu.
 Principal axes and moments of inertia in atomic units:
                           1         2         3
     Eigenvalues --   522.696123467.212593989.90871
           X            0.99990  -0.01385   0.00002
           Y            0.01385   0.99990   0.00002
           Z           -0.00002  -0.00002   1.00000
 This molecule is an asymmetric top.
 Rotational symmetry number  1.
 Warning -- assumption of classical behavior for rotation
           may cause significant error
 Rotational temperatures (Kelvin)      0.16571     0.02498     0.02171
 Rotational constants (GHZ):           3.45275     0.52052     0.45233
 Zero-point vibrational energy     197714.7 (Joules/Mol)
                                   47.25496 (Kcal/Mol)
 Warning -- explicit consideration of   9 degrees of freedom as
           vibrations may cause significant error
 Vibrational temperatures:    108.36   174.84   193.47   361.24   391.93
          (Kelvin)            473.17   643.54   766.10   806.82   908.50
                              940.60  1010.21  1090.41  1183.73  1302.47
                             1362.56  1392.57  1500.46  1625.95  1690.39
                             1780.82  1788.04  2013.78  2025.42  2173.00
                             2356.38  2612.28  4722.88  4741.48  5417.82

 Zero-point correction=                           0.075306 (Hartree/Particle)
 Thermal correction to Energy=                    0.083077
 Thermal correction to Enthalpy=                  0.084022
 Thermal correction to Gibbs Free Energy=         0.040974
 Sum of electronic and zero-point Energies=          -2989.647659
 Sum of electronic and thermal Energies=             -2989.639887
 Sum of electronic and thermal Enthalpies=           -2989.638943
 Sum of electronic and thermal Free Energies=        -2989.681990

                     E (Thermal)             CV                S
                      KCal/Mol        Cal/Mol-Kelvin    Cal/Mol-Kelvin
 Total                   52.132             27.456             90.600
 Electronic               0.000              0.000              0.000
 Translational            0.889              2.981             41.630
 Rotational               0.889              2.981             30.359
 Vibrational             50.354             21.494             18.611
 Vibration     1          0.599              1.965              4.009
 Vibration     2          0.609              1.931              3.076
 Vibration     3          0.613              1.919              2.881
 Vibration     4          0.663              1.761              1.723
 Vibration     5          0.675              1.724              1.581
 Vibration     6          0.712              1.618              1.266
 Vibration     7          0.806              1.367              0.804
 Vibration     8          0.887              1.178              0.582
 Vibration     9          0.916              1.116              0.522

 Optimization completed.
    -- Stationary point found.
 Normal termination of Gaussian 16 at Tue Sep 17 09:53:04 2024.

 ----------------------------------------------------------------------
 #p M062X/def2tzvp geom=check guess=read scf(xqc,tight) integral(grid=u
 ltrafine) scrf(SMD, solvent=1,4-Dioxane) polar prop=efg volume
 ----------------------------------------------------------------------

 ---
 spe
 ---
 Structure from the checkpoint file:  "smiles_00072_conf_0.chk"
 Charge =  0 Multiplicity = 1

 SCF Done:  E(RM062X) =  -2992.20996320     A.U. after   13 cycles

  Exact polarizability:     145.601       2.518      96.223      -0.002      -0.001      54.516
 Approx polarizability:     146.310       6.315     114.627      -0.001      -0.001      67.655

 Normal termination of Gaussian 16 at Tue Sep 17 10:00:17 2024.
 Gaussian 16:  ES64L-G16RevC.02  7-Dec-2021

 ----------------------------------------------------------------------
 #p M062X/def2tzvp geom=check guess=read scf(xqc,tight) integral(grid=u
 ltrafine) scrf(SMD, solvent=1,4-Dioxane) nmr=giao
 ----------------------------------------------------------------------

 ---
 spe
 ---
 Structure from the checkpoint file:  "smiles_00072_conf_0.chk"
 Charge =  0 Multiplicity = 1

                         Standard orientation:
 ---------------------------------------------------------------------
 Center     Atomic      Atomic             Coordinates (Angstroms)
 Number     Number       Type             X           Y           Z
 ---------------------------------------------------------------------
      1          8           0        3.809289    0.324845   -0.000060
      2          6           0        2.769789   -0.305476   -0.000080
      3          8           0        2.709715   -1.655771    0.000029
      4          6           0        1.454762    0.327340   -0.000057
      5          6           0        1.114424    1.653776   -0.000071
      6          6           0       -0.308248    1.712742    0.000020
      7          6           0       -0.723017    0.409232   -0.000004
      8         35           0       -2.429800   -0.332784    0.000044
      9          8           0        0.317510   -0.449005   -0.000016
     10          1           0        3.632716   -1.959291    0.000057
     11          1           0        1.814307    2.475536   -0.000108
     12          1           0       -0.942384    2.584960    0.000061
 ---------------------------------------------------------------------

 SCF Done:  E(RM062X) =  -2992.20996320     A.U. after    1 cycles

      1  O    Isotropic =  -108.6426   Anisotropy =   570.0358

      2  C    Isotropic =     9.7193   Anisotropy =   101.4204

      3  O    Isotropic =   117.3858   Anisotropy =   199.0137

      4  C    Isotropic =    18.8805   Anisotropy =   106.7715

      5  C    Isotropic =    40.7269   Anisotropy =   184.4124

      6  C    Isotropic =    51.5965   Anisotropy =   143.3875

      7  C    Isotropic =    17.8184   Anisotropy =    74.8628

      8  Br   Isotropic =  2103.9304   Anisotropy =  1209.1742

      9  O    Isotropic =   -19.2040   Anisotropy =   303.8874

     10  H    Isotropic =    25.4183   Anisotropy =    10.8911

     11  H    Isotropic =    23.6161   Anisotropy =     4.1671

     12  H    Isotropic =    24.6567   Anisotropy =     6.3129

 The electronic state is 1-A.
 Alpha  occ. eigenvalues -- -485.40231 -63.38710 -57.20666 -57.20409 -57.20404
 Alpha  occ. eigenvalues --  -19.72699 -19.68383 -19.62878 -10.69679 -10.66792
 Alpha  occ. eigenvalues --  -10.62130 -10.57248 -10.56669  -9.05379  -6.87839
 Alpha  occ. eigenvalues --   -6.86878  -6.86860  -2.91222  -2.90866  -2.90841
 Alpha  occ. eigenvalues --   -2.89949  -2.89949  -1.27352  -1.24228  -1.14967
 Alpha  occ. eigenvalues --   -0.94216  -0.93046  -0.85823  -0.75166  -0.70381
 Alpha  occ. eigenvalues --   -0.66619  -0.63630  -0.58700  -0.58235  -0.54971
 Alpha  occ. eigenvalues --   -0.53588  -0.50988  -0.49401  -0.48578  -0.46873
 Alpha  occ. eigenvalues --   -0.41316  -0.40331  -0.38162  -0.37419  -0.36987
 Alpha  occ. eigenvalues --   -0.29798
 Alpha virt. eigenvalues --   -0.02772   0.03160   0.05426   0.07081   0.09842
 Alpha virt. eigenvalues --    0.11850   0.12400   0.13322   0.16265   0.16424
 Alpha virt. eigenvalues --    0.18528   0.19213   0.21421   0.21637   0.25548

 Mulliken charges:
               1
     1  O   -0.350283
     2  C    0.326554
     3  O   -0.402189
     4  C    0.176762
     5  C   -0.223861
     6  C   -0.127890
     7  C    0.092760
     8  Br  -0.020705
     9  O   -0.210623
    10  H    0.356041
    11  H    0.190239
    12  H    0.193195
 Sum of Mulliken charges =  -0.00000

 Dipole moment (field-independent basis, Debye):
    X=             -1.2489    Y=              0.7141    Z=              0.0000  Tot=              1.4386
 Quadrupole moment (field-independent basis, Debye-Ang):
   XX=            -65.8388   YY=            -55.9617   ZZ=            -64.1663
   XY=             -7.0967   XZ=              0.0001   YZ=             -0.0000

 Normal termination of Gaussian 16 at Tue Sep 17 10:04:01 2024.
