 Gaussian 16, Revision C.02,

 ----------------------------------------------------------------------
 #p B3LYP/6-31G(d,p) EmpiricalDispersion=GD3BJ opt freq scf(xqc,tight)
 integral(grid=ultrafine)
 ----------------------------------------------------------------------

 ----------------------------------
 opt-freq conformers_unique/conf_ab
 ----------------------------------
 Symbolic Z-matrix:
 Charge =  0 Multiplicity = 1

 SCF Done:  E(RB3LYP) =  -3071.57965003     A.U. after   14 cycles
 SCF Done:  E(RB3LYP) =  -3071.58075994     A.U. after   12 cycles
 SCF Done:  E(RB3LYP) =  -3071.58078924     A.U. after   10 cycles
 SCF Done:  E(RB3LYP) =  -3071.58079168     A.U. after    8 cycles
 SCF Done:  E(RB3LYP) =  -3071.58079209     A.U. after    7 cycles
 Optimization completed.
    -- Stationary point found.
 Normal termination of Gaussian 16 at Tue Sep 17 09:52:03 2024.

 ----------------------------------------------------------------------
 #P Geom=AllCheck Guess=TCheck SCRF=Check GenChk RB3LYP/6-31G(d,p) Freq
 ----------------------------------------------------------------------

 Structure from the checkpoint file:  "smiles_00061_conf_1.chk"
 ----------------------------------
 opt-freq conformers_unique/conf_ab
 ----------------------------------
 Charge =  0 Multiplicity = 1

 SCF Done:  E(RB3LYP) =  -3071.58079209     A.U. after    1 cycles

                      1                      2                      3
                      A                      A                      A
 Frequencies --     50.2374                88.6397               140.2724
 Red. masses --      4.4097                 4.5463                 6.4115
 Frc consts  --      0.0066                 0.0210                 0.0743
 IR Inten    --      0.7928                 3.6659                 0.3912

                      4                      5                      6
                      A                      A                      A
 Frequencies --    179.6684               193.8155               235.1383
 Red. masses --      2.9157                 4.9540                10.0777
 Frc consts  --      0.0555                 0.1096                 0.3283
 IR Inten    --      1.0261                 0.1492                 0.5172

                      7                      8                      9
                      A                      A                      A
 Frequencies --    259.2380               259.9640               359.5355
 Red. masses --      4.2474                 1.2311                 5.3738
 Frc consts  --      0.1682                 0.0490                 0.4093
 IR Inten    --      3.3483                 0.5568                 0.0217

                     10                     11                     12
                      A                      A                      A
 Frequencies --    387.6110               417.4068               445.5125
 Red. masses --      4.2191                 3.3566                 5.6312
 Frc consts  --      0.3735                 0.3446                 0.6585
 IR Inten    --      0.3426                 0.1130                 1.5786

                     13                     14                     15
                      A                      A                      A
 Frequencies --    485.1162               532.6494               561.5313
 Red. masses --      2.6465                 6.6286                 3.2202
 Frc consts  --      0.3670                 1.1080                 0.5983
 IR Inten    --      8.7343                 0.6594                 0.9191

                     16                     17                     18
                      A                      A                      A
 Frequencies --    573.9092               656.5550               664.7723
 Red. masses --      4.7101                 7.1535                 3.6487
 Frc consts  --      0.9140                 1.8168                 0.9500
 IR Inten    --     30.1633                 4.3219                 1.8247

                     19                     20                     21
                      A                      A                      A
 Frequencies --    738.7480               764.7878               810.9071
 Red. masses --      6.5193                 2.9836                 4.5315
 Frc consts  --      2.0963                 1.0282                 1.7557
 IR Inten    --      0.2044                 0.6962                 2.8948

                     22                     23                     24
                      A                      A                      A
 Frequencies --    816.7394               822.7176               886.4320
 Red. masses --      1.3754                 1.5180                 1.5469
 Frc consts  --      0.5406                 0.6054                 0.7162
 IR Inten    --     25.7108                 1.0040                31.5974

                     25                     26                     27
                      A                      A                      A
 Frequencies --    906.9425               911.9064               956.7657
 Red. masses --      5.9522                 1.4549                 1.3218
 Frc consts  --      2.8846                 0.7128                 0.7129
 IR Inten    --     47.2801                16.6405                 1.8409

                     28                     29                     30
                      A                      A                      A
 Frequencies --    973.0535               980.5207              1080.7678
 Red. masses --      4.1624                 1.3208                 3.4689
 Frc consts  --      2.3220                 0.7482                 2.3873
 IR Inten    --      3.4657                 0.0758                53.9364

                     31                     32                     33
                      A                      A                      A
 Frequencies --   1089.3985              1169.9549              1178.1720
 Red. masses --      2.3454                 1.4924                 1.2711
 Frc consts  --      1.6400                 1.2036                 1.0396
 IR Inten    --     18.4719                24.9110                 0.6734

                     34                     35                     36
                      A                      A                      A
 Frequencies --   1187.7870              1197.4975              1210.3359
 Red. masses --      1.2593                 1.6943                 1.5420
 Frc consts  --      1.0468                 1.4315                 1.3309
 IR Inten    --      0.6352                73.5768                 2.1886

                     37                     38                     39
                      A                      A                      A
 Frequencies --   1255.4713              1291.7533              1317.6416
 Red. masses --      1.6285                 1.7535                 3.1787
 Frc consts  --      1.5123                 1.7239                 3.2516
 IR Inten    --     68.8469                 6.4143               326.0494

                     40                     41                     42
                      A                      A                      A
 Frequencies --   1374.8414              1408.1277              1420.8296
 Red. masses --      2.0912                 3.6915                 5.4120
 Frc consts  --      2.3289                 4.3126                 6.4371
 IR Inten    --      6.6051                28.8449                 1.6005

                     43                     44                     45
                      A                      A                      A
 Frequencies --   1455.0802              1488.5149              1506.7834
 Red. masses --      4.3916                 1.2738                 1.0466
 Frc consts  --      5.4783                 1.6629                 1.4000
 IR Inten    --      0.7771                10.4730                 5.4409

                     46                     47                     48
                      A                      A                      A
 Frequencies --   1515.6080              1521.5065              1556.6843
 Red. masses --      1.7499                 1.2410                 3.4891
 Frc consts  --      2.3682                 1.6927                 4.9816
 IR Inten    --     20.2862                30.6938                87.6866

                     49                     50                     51
                      A                      A                      A
 Frequencies --   1619.5785              1649.9007              1688.0698
 Red. masses --      7.4290                 5.9501                 6.4753
 Frc consts  --     11.4811                 9.5431                10.8715
 IR Inten    --      2.3391               111.1317                78.9671

                     52                     53                     54
                      A                      A                      A
 Frequencies --   3017.2163              3079.7512              3152.5094
 Red. masses --      1.0349                 1.1062                 1.0998
 Frc consts  --      5.5511                 6.1820                 6.4400
 IR Inten    --     70.7636                41.7214                27.1114

                     55                     56                     57
                      A                      A                      A
 Frequencies --   3186.7136              3188.7917              3205.7475
 Red. masses --      1.0895                 1.0891                 1.0910
 Frc consts  --      6.5189                 6.5248                 6.6060
 IR Inten    --      8.0306                 6.4575                 6.7036

                     58                     59                     60
                      A                      A                      A
 Frequencies --   3208.0159              3222.7186              3228.9418
 Red. masses --      1.0916                 1.0942                 1.0919
 Frc consts  --      6.6186                 6.6957                 6.7073
 IR Inten    --      1.6990                 4.9230                10.6218

 - Thermochemistry -
 -------------------
 Temperature   298.150 Kelvin.  Pressure   1.00000 Atm.
 Atom     1 has atomic number  6 and mass  12.00000

 Molecular mass:   235.98368 amu.
 Principal axes and moments of inertia in atomic units:
                           1         2         3
     Eigenvalues --   717.129408185.232998890.85925
           X            0.99992  -0.01264  -0.00009
           Y            0.01264   0.99992  -0.00010
           Z            0.00010   0.00010   1.00000
 This molecule is an asymmetric top.
 Rotational symmetry number  1.
 Warning -- assumption of classical behavior for rotation
           may cause significant error
 Rotational temperatures (Kelvin)      0.12078     0.01058     0.00974
 Rotational constants (GHZ):           2.51662     0.22049     0.20299
 Zero-point vibrational energy     447019.4 (Joules/Mol)
                                  106.84020 (Kcal/Mol)
 Warning -- explicit consideration of  16 degrees of freedom as
           vibrations may cause significant error
 Vibrational temperatures:     72.28   127.53   201.82   258.50   278.86
          (Kelvin)            338.31   372.99   374.03   517.29   557.69
                              600.56   640.99   697.97   766.36   807.92
                              825.73   944.64   956.46  1062.89  1100.36
                             1166.71  1175.11  1183.71  1275.38  1304.89
                             1312.03  1376.57  1400.01  1410.75  1554.98
                             1567.40  1683.30  1695.13  1708.96  1722.93
                             1741.40  1806.34  1858.54  1895.79  1978.09
                             2025.98  2044.26  2093.54  2141.64  2167.93
                             2180.62  2189.11  2239.72  2330.21  2373.84
                             2428.76  4341.10  4431.08  4535.76  4584.97
                             4587.96  4612.36  4615.62  4636.77  4645.73

 Zero-point correction=                           0.170261 (Hartree/Particle)
 Thermal correction to Energy=                    0.181177
 Thermal correction to Enthalpy=                  0.182121
 Thermal correction to Gibbs Free Energy=         0.132310
 Sum of electronic and zero-point Energies=          -3071.410531
 Sum of electronic and thermal Energies=             -3071.399616
 Sum of electronic and thermal Enthalpies=           -3071.398671
 Sum of electronic and thermal Free Energies=        -3071.448482

                     E (Thermal)             CV                S
                      KCal/Mol        Cal/Mol-Kelvin    Cal/Mol-Kelvin
 Total                  113.690             42.203            104.835
 Electronic               0.000              0.000              0.000
 Translational            0.889              2.981             42.277
 Rotational               0.889              2.981             32.323
 Vibrational            111.913             36.241             30.235
 Vibration     1          0.595              1.978              4.808
 Vibration     2          0.601              1.957              3.690
 Vibration     3          0.615              1.913              2.800
 Vibration     4          0.629              1.867              2.332
 Vibration     5          0.635              1.848              2.191
 Vibration     6          0.655              1.787              1.839
 Vibration     7          0.668              1.747              1.667
 Vibration     8          0.668              1.746              1.662
 Vibration     9          0.734              1.556              1.124
 Vibration    10          0.756              1.497              1.009
 Vibration    11          0.780              1.432              0.901
 Vibration    12          0.805              1.371              0.809
 Vibration    13          0.841              1.283              0.696
 Vibration    14          0.888              1.178              0.581
 Vibration    15          0.917              1.115              0.521
 Vibration    16          0.930              1.088              0.497

 Optimization completed.
    -- Stationary point found.
 Normal termination of Gaussian 16 at Tue Sep 17 09:54:04 2024.

 ----------------------------------------------------------------------
 #p M062X/def2tzvp geom=check guess=read scf(xqc,tight) integral(grid=u
 ltrafine) scrf(SMD, solvent=1,4-Dioxane) polar prop=efg volume
 ----------------------------------------------------------------------

 ---
 spe
 ---
 Structure from the checkpoint file:  "smiles_00061_conf_1.chk"
 Charge =  0 Multiplicity = 1

 SCF Done:  E(RM062X) =  -3073.99086532     A.U. after   12 cycles

  Exact polarizability:     296.196     -11.887     172.181       0.018       0.007      93.775
 Approx polarizability:     287.226      -8.640     207.789       0.014       0.009     117.556

 Normal termination of Gaussian 16 at Tue Sep 17 10:54:18 2024.
 Gaussian 16:  ES64L-G16RevC.02  7-Dec-2021

 ----------------------------------------------------------------------
 #p M062X/def2tzvp geom=check guess=read scf(xqc,tight) integral(grid=u
 ltrafine) scrf(SMD, solvent=1,4-Dioxane) nmr=giao
 ----------------------------------------------------------------------

 ---
 spe
 ---
 Structure from the checkpoint file:  "smiles_00061_conf_1.chk"
 Charge =  0 Multiplicity = 1

                         Standard orientation:
 ---------------------------------------------------------------------
 Center     Atomic      Atomic             Coordinates (Angstroms)
 Number     Number       Type             X           Y           Z
 ---------------------------------------------------------------------
      1          6           0        5.516475   -0.429388    0.000608
      2          8           0        4.498937    0.559035    0.000423
      3          6           0        3.196694    0.151955    0.000281
      4          6           0        2.799945   -1.210553    0.000099
      5          6           0        1.462198   -1.537085   -0.000051
      6          6           0        0.458853   -0.538340   -0.000031
      7          6           0       -0.924199   -0.858626   -0.000184
      8          6           0       -1.855641    0.148176   -0.000159
      9         35           0       -3.720001   -0.277756   -0.000369
     10          6           0       -1.475534    1.511288    0.000018
     11          6           0       -0.142025    1.840323    0.000168
     12          6           0        0.865370    0.836007    0.000148
     13          6           0        2.241139    1.151404    0.000303
     14          1           0        5.466559   -1.063787    0.894466
     15          1           0        6.461678    0.114483    0.000839
     16          1           0        5.466961   -1.063713   -0.893325
     17          1           0        3.541592   -1.999307    0.000069
     18          1           0        1.162812   -2.581131   -0.000190
     19          1           0       -1.234353   -1.897719   -0.000320
     20          1           0       -2.240349    2.278798    0.000034
     21          1           0        0.158078    2.884029    0.000306
     22          1           0        2.565891    2.186537    0.000443
 ---------------------------------------------------------------------

 SCF Done:  E(RM062X) =  -3073.99086532     A.U. after    1 cycles

      1  C    Isotropic =   129.6688   Anisotropy =    73.4222

      2  O    Isotropic =   228.0164   Anisotropy =    86.0617

      3  C    Isotropic =     5.4880   Anisotropy =   162.8939

      4  C    Isotropic =    53.7683   Anisotropy =   189.7836

      5  C    Isotropic =    34.1190   Anisotropy =   191.6201

      6  C    Isotropic =    34.5440   Anisotropy =   230.9419

      7  C    Isotropic =    33.2252   Anisotropy =   162.4653

      8  C    Isotropic =    31.9813   Anisotropy =   129.8231

      9  Br   Isotropic =  2102.1265   Anisotropy =  1287.6233

     10  C    Isotropic =    33.2148   Anisotropy =   176.2530

     11  C    Isotropic =    35.5925   Anisotropy =   185.2621

     12  C    Isotropic =    29.1547   Anisotropy =   244.9007

     13  C    Isotropic =    54.1584   Anisotropy =   148.7038

     14  H    Isotropic =    28.0683   Anisotropy =     8.3333

     15  H    Isotropic =    27.7543   Anisotropy =     8.5190

     16  H    Isotropic =    28.0681   Anisotropy =     8.3335

     17  H    Isotropic =    23.7867   Anisotropy =     9.4746

     18  H    Isotropic =    23.1094   Anisotropy =     9.3107

     19  H    Isotropic =    23.1048   Anisotropy =    12.7555

     20  H    Isotropic =    23.5948   Anisotropy =    10.7415

     21  H    Isotropic =    23.2531   Anisotropy =     8.7569

     22  H    Isotropic =    23.6667   Anisotropy =     9.3303

 The electronic state is 1-A.
 Alpha  occ. eigenvalues -- -485.37291 -63.35769 -57.17712 -57.17478 -57.17473
 Alpha  occ. eigenvalues --  -19.65952 -10.61051 -10.59993 -10.58890 -10.56100
 Alpha  occ. eigenvalues --  -10.55850 -10.55576 -10.55506 -10.55420 -10.55175
 Alpha  occ. eigenvalues --  -10.55141 -10.54121  -9.02411  -6.84812  -6.83945
 Alpha  occ. eigenvalues --   -6.83929  -2.88188  -2.87874  -2.87853  -2.87045
 Alpha  occ. eigenvalues --   -2.87045  -1.19304  -0.99134  -0.94283  -0.89016
 Alpha  occ. eigenvalues --   -0.87590  -0.83511  -0.82457  -0.77583  -0.72222
 Alpha  occ. eigenvalues --   -0.68913  -0.68054  -0.61201  -0.59296  -0.58186
 Alpha  occ. eigenvalues --   -0.55064  -0.54532  -0.52348  -0.52147  -0.49275
 Alpha  occ. eigenvalues --   -0.47854  -0.47852  -0.47141  -0.45968  -0.43662
 Alpha  occ. eigenvalues --   -0.41871  -0.40785  -0.39456  -0.39105  -0.36572
 Alpha  occ. eigenvalues --   -0.34966  -0.33246  -0.29441  -0.25926
 Alpha virt. eigenvalues --   -0.02440   0.01071   0.03864   0.04413   0.07806
 Alpha virt. eigenvalues --    0.09606   0.10102   0.11176   0.11995   0.12937
 Alpha virt. eigenvalues --    0.13564   0.14247   0.14858   0.15393   0.15636

 Mulliken charges:
               1
     1  C   -0.311428
     2  O   -0.282734
     3  C    0.280997
     4  C   -0.241759
     5  C   -0.221539
     6  C    0.089998
     7  C   -0.213370
     8  C    0.047725
     9  Br  -0.120415
    10  C   -0.166469
    11  C   -0.209834
    12  C    0.108710
    13  C   -0.263974
    14  H    0.159508
    15  H    0.164805
    16  H    0.159505
    17  H    0.178049
    18  H    0.162389
    19  H    0.176129
    20  H    0.177954
    21  H    0.161505
    22  H    0.164250
 Sum of Mulliken charges =  -0.00000

 Dipole moment (field-independent basis, Debye):
    X=              3.5960    Y=             -1.0677    Z=              0.0004  Tot=              3.7512
 Quadrupole moment (field-independent basis, Debye-Ang):
   XX=            -78.3055   YY=            -78.9016   ZZ=            -93.5038
   XY=             -8.2008   XZ=              0.0018   YZ=              0.0009

 Normal termination of Gaussian 16 at Tue Sep 17 11:16:26 2024.
