 Gaussian 16, Revision C.02,

 ----------------------------------------------------------------------
 #p B3LYP/6-31G(d,p) EmpiricalDispersion=GD3BJ opt freq scf(xqc,tight)
 integral(grid=ultrafine)
 ----------------------------------------------------------------------

 ----------------------------------
 opt-freq conformers_unique/conf_aa
 ----------------------------------
 Symbolic Z-matrix:
 Charge =  0 Multiplicity = 1

 SCF Done:  E(RB3LYP) =  -2934.96687060     A.U. after   14 cycles
 SCF Done:  E(RB3LYP) =  -2934.96830478     A.U. after   11 cycles
 SCF Done:  E(RB3LYP) =  -2934.96835101     A.U. after    9 cycles
 SCF Done:  E(RB3LYP) =  -2934.96835328     A.U. after    8 cycles
 Optimization completed.
    -- Stationary point found.
 Normal termination of Gaussian 16 at Tue Sep 17 09:46:57 2024.

 ----------------------------------------------------------------------
 #P Geom=AllCheck Guess=TCheck SCRF=Check GenChk RB3LYP/6-31G(d,p) Freq
 ----------------------------------------------------------------------

 Structure from the checkpoint file:  "smiles_00102_conf_0.chk"
 ----------------------------------
 opt-freq conformers_unique/conf_aa
 ----------------------------------
 Charge =  0 Multiplicity = 1

 SCF Done:  E(RB3LYP) =  -2934.96835328     A.U. after    1 cycles

                      1                      2                      3
                      A                      A                      A
 Frequencies --    108.9376               197.2081               226.5031
 Red. masses --      6.1930                 6.8145                 4.3916
 Frc consts  --      0.0433                 0.1561                 0.1327
 IR Inten    --      2.0129                 0.4476                 6.6843

                      4                      5                      6
                      A                      A                      A
 Frequencies --    280.5591               319.2617               390.3990
 Red. masses --     13.2478                 6.0524                 1.2804
 Frc consts  --      0.6144                 0.3635                 0.1150
 IR Inten    --      1.7588                 0.2551                84.4826

                      7                      8                      9
                      A                      A                      A
 Frequencies --    429.3880               433.1286               588.7052
 Red. masses --      3.8852                 2.8548                 6.6019
 Frc consts  --      0.4221                 0.3155                 1.3481
 IR Inten    --      4.1811                 1.3463                 3.8083

                     10                     11                     12
                      A                      A                      A
 Frequencies --    598.0270               624.7824               675.2148
 Red. masses --      2.9187                 3.4212                 7.3933
 Frc consts  --      0.6150                 0.7868                 1.9860
 IR Inten    --      6.9605                 0.1096                16.7089

                     13                     14                     15
                      A                      A                      A
 Frequencies --    732.9979               779.8504               797.1605
 Red. masses --      1.4137                 2.2041                 5.1473
 Frc consts  --      0.4475                 0.7898                 1.9272
 IR Inten    --     43.5041                19.9885                 3.5967

                     16                     17                     18
                      A                      A                      A
 Frequencies --    812.7057               860.2434               898.7900
 Red. masses --      1.7220                 1.2679                 5.5109
 Frc consts  --      0.6701                 0.5528                 2.6229
 IR Inten    --     14.5527                 0.6035                34.5275

                     19                     20                     21
                      A                      A                      A
 Frequencies --    906.3151               919.6542               944.6609
 Red. masses --      1.4973                 3.9493                 1.3011
 Frc consts  --      0.7246                 1.9680                 0.6841
 IR Inten    --     14.0695                 1.0172                 0.1418

                     22                     23                     24
                      A                      A                      A
 Frequencies --   1077.7613              1099.0409              1116.3950
 Red. masses --      2.1095                 1.5253                 1.4441
 Frc consts  --      1.4437                 1.0855                 1.0604
 IR Inten    --     14.7142                 7.4550                34.3334

                     25                     26                     27
                      A                      A                      A
 Frequencies --   1162.8863              1220.1977              1273.3857
 Red. masses --      1.3084                 2.4312                 1.4658
 Frc consts  --      1.0425                 2.1327                 1.4003
 IR Inten    --      0.7831                 6.9522                 8.4878

                     28                     29                     30
                      A                      A                      A
 Frequencies --   1297.4621              1357.7046              1381.4446
 Red. masses --      2.3623                 2.9251                 3.4409
 Frc consts  --      2.3430                 3.1769                 3.8689
 IR Inten    --      2.8744                28.4519                 9.7130

                     31                     32                     33
                      A                      A                      A
 Frequencies --   1457.3726              1488.4420              1505.2482
 Red. masses --      2.9766                 2.8277                 3.8978
 Frc consts  --      3.7249                 3.6910                 5.2034
 IR Inten    --     15.0269                33.9365                42.8727

                     34                     35                     36
                      A                      A                      A
 Frequencies --   1565.1159              1623.4000              1671.3587
 Red. masses --      4.2265                 5.7907                 6.6989
 Frc consts  --      6.0999                 8.9915                11.0253
 IR Inten    --      2.6044                16.8455                 0.7146

                     37                     38                     39
                      A                      A                      A
 Frequencies --   3192.9655              3217.8187              3225.9833
 Red. masses --      1.0898                 1.0918                 1.0936
 Frc consts  --      6.5461                 6.6609                 6.7056
 IR Inten    --      9.5755                 1.4781                 2.9798

                     40                     41                     42
                      A                      A                      A
 Frequencies --   3260.1332              3278.8474              3693.1537
 Red. masses --      1.0898                 1.1044                 1.0804
 Frc consts  --      6.8245                 6.9955                 8.6825
 IR Inten    --      0.7254                 3.9415                73.2032

 - Thermochemistry -
 -------------------
 Temperature   298.150 Kelvin.  Pressure   1.00000 Atm.
 Atom     1 has atomic number 35 and mass  78.91834

 Molecular mass:   194.96836 amu.
 Principal axes and moments of inertia in atomic units:
                           1         2         3
     Eigenvalues --   544.102643919.340724463.44337
           X            0.99997   0.00822  -0.00007
           Y           -0.00822   0.99997   0.00004
           Z            0.00007  -0.00004   1.00000
 This molecule is an asymmetric top.
 Rotational symmetry number  1.
 Warning -- assumption of classical behavior for rotation
           may cause significant error
 Rotational temperatures (Kelvin)      0.15919     0.02210     0.01941
 Rotational constants (GHZ):           3.31691     0.46047     0.40434
 Zero-point vibrational energy     315159.8 (Joules/Mol)
                                   75.32501 (Kcal/Mol)
 Warning -- explicit consideration of  10 degrees of freedom as
           vibrations may cause significant error
 Vibrational temperatures:    156.74   283.74   325.89   403.66   459.35
          (Kelvin)            561.70   617.79   623.18   847.02   860.43
                              898.92   971.48  1054.62  1122.03  1146.94
                             1169.30  1237.70  1293.16  1303.99  1323.18
                             1359.16  1550.66  1581.27  1606.24  1673.13
                             1755.59  1832.12  1866.76  1953.43  1987.59
                             2096.83  2141.54  2165.72  2251.85  2335.71
                             2404.71  4593.97  4629.72  4641.47  4690.60
                             4717.53  5313.62

 Zero-point correction=                           0.120038 (Hartree/Particle)
 Thermal correction to Energy=                    0.127772
 Thermal correction to Enthalpy=                  0.128716
 Thermal correction to Gibbs Free Energy=         0.086460
 Sum of electronic and zero-point Energies=          -2934.848315
 Sum of electronic and thermal Energies=             -2934.840582
 Sum of electronic and thermal Enthalpies=           -2934.839637
 Sum of electronic and thermal Free Energies=        -2934.881893

                     E (Thermal)             CV                S
                      KCal/Mol        Cal/Mol-Kelvin    Cal/Mol-Kelvin
 Total                   80.178             30.543             88.934
 Electronic               0.000              0.000              0.000
 Translational            0.889              2.981             41.708
 Rotational               0.889              2.981             30.632
 Vibrational             78.400             24.582             16.594
 Vibration     1          0.606              1.942              3.288
 Vibration     2          0.637              1.844              2.159
 Vibration     3          0.650              1.801              1.906
 Vibration     4          0.680              1.710              1.530
 Vibration     5          0.705              1.637              1.314
 Vibration     6          0.758              1.491              0.999
 Vibration     7          0.791              1.406              0.861
 Vibration     8          0.794              1.398              0.848
 Vibration     9          0.946              1.056              0.469
 Vibration    10          0.956              1.036              0.453

 Optimization completed.
    -- Stationary point found.
 Normal termination of Gaussian 16 at Tue Sep 17 09:47:50 2024.

 ----------------------------------------------------------------------
 #p M062X/def2tzvp geom=check guess=read scf(xqc,tight) integral(grid=u
 ltrafine) scrf(SMD, solvent=1,4-Dioxane) polar prop=efg volume
 ----------------------------------------------------------------------

 ---
 spe
 ---
 Structure from the checkpoint file:  "smiles_00102_conf_0.chk"
 Charge =  0 Multiplicity = 1

 SCF Done:  E(RM062X) =  -2937.40575058     A.U. after   13 cycles

  Exact polarizability:     207.887       6.731     136.726       0.010      -0.002      72.969
 Approx polarizability:     212.928       3.203     163.057       0.008      -0.002      91.153

 Normal termination of Gaussian 16 at Tue Sep 17 10:20:43 2024.
 Gaussian 16:  ES64L-G16RevC.02  7-Dec-2021

 ----------------------------------------------------------------------
 #p M062X/def2tzvp geom=check guess=read scf(xqc,tight) integral(grid=u
 ltrafine) scrf(SMD, solvent=1,4-Dioxane) nmr=giao
 ----------------------------------------------------------------------

 ---
 spe
 ---
 Structure from the checkpoint file:  "smiles_00102_conf_0.chk"
 Charge =  0 Multiplicity = 1

                         Standard orientation:
 ---------------------------------------------------------------------
 Center     Atomic      Atomic             Coordinates (Angstroms)
 Number     Number       Type             X           Y           Z
 ---------------------------------------------------------------------
      1         35           0        2.663237   -0.201047    0.000204
      2          6           0        0.774661    0.129391    0.000063
      3          6           0        0.334392    1.465541   -0.000036
      4          6           0       -1.024812    1.750182   -0.000153
      5          6           0       -1.917505    0.675425   -0.000169
      6          7           0       -3.296596    0.652238   -0.000261
      7          6           0       -3.732418   -0.660387   -0.000224
      8          6           0       -2.651698   -1.502657   -0.000183
      9          6           0       -1.475588   -0.678445   -0.000072
     10          6           0       -0.096715   -0.946725    0.000049
     11          1           0        1.062971    2.266911   -0.000021
     12          1           0       -1.373644    2.778212   -0.000219
     13          1           0       -3.892644    1.462952   -0.000399
     14          1           0       -4.788631   -0.886075   -0.000287
     15          1           0       -2.686304   -2.581916   -0.000155
     16          1           0        0.279219   -1.963063    0.000118
 ---------------------------------------------------------------------

 SCF Done:  E(RM062X) =  -2937.40575058     A.U. after    1 cycles

      1  Br   Isotropic =  2120.9671   Anisotropy =  1293.8471

      2  C    Isotropic =    36.9255   Anisotropy =   122.1882

      3  C    Isotropic =    39.5715   Anisotropy =   171.6960

      4  C    Isotropic =    55.1255   Anisotropy =   175.8636

      5  C    Isotropic =    31.4661   Anisotropy =   177.5239

      6  N    Isotropic =   101.4326   Anisotropy =   108.8013

      7  C    Isotropic =    41.3187   Anisotropy =   144.9975

      8  C    Isotropic =    67.7336   Anisotropy =   137.7948

      9  C    Isotropic =    34.8657   Anisotropy =   193.3604

     10  C    Isotropic =    40.9785   Anisotropy =   164.7547

     11  H    Isotropic =    23.8515   Anisotropy =    10.5130

     12  H    Isotropic =    23.7978   Anisotropy =     6.8903

     13  H    Isotropic =    23.4794   Anisotropy =     8.8087

     14  H    Isotropic =    24.0048   Anisotropy =     3.6829

     15  H    Isotropic =    24.6456   Anisotropy =     4.3850

     16  H    Isotropic =    23.3637   Anisotropy =    11.6823

 The electronic state is 1-A.
 Alpha  occ. eigenvalues -- -485.36680 -63.35159 -57.17102 -57.16868 -57.16865
 Alpha  occ. eigenvalues --  -14.79652 -10.59254 -10.58109 -10.57987 -10.55252
 Alpha  occ. eigenvalues --  -10.55077 -10.54945 -10.54882 -10.53290  -9.01801
 Alpha  occ. eigenvalues --   -6.84199  -6.83333  -6.83326  -2.87575  -2.87259
 Alpha  occ. eigenvalues --   -2.87246  -2.86439  -2.86439  -1.09512  -0.96452
 Alpha  occ. eigenvalues --   -0.88933  -0.88359  -0.82184  -0.80702  -0.71089
 Alpha  occ. eigenvalues --   -0.68182  -0.65897  -0.62517  -0.56149  -0.53078
 Alpha  occ. eigenvalues --   -0.51432  -0.50758  -0.50482  -0.48335  -0.46376
 Alpha  occ. eigenvalues --   -0.43384  -0.41811  -0.40582  -0.35856  -0.34851
 Alpha  occ. eigenvalues --   -0.34431  -0.27476  -0.26614
 Alpha virt. eigenvalues --    0.00210   0.03901   0.04255   0.06948   0.08596
 Alpha virt. eigenvalues --    0.10322   0.10943   0.11886   0.13055   0.13760
 Alpha virt. eigenvalues --    0.15081   0.17361   0.18638   0.19582   0.21337

 Mulliken charges:
               1
     1  Br  -0.136760
     2  C    0.064628
     3  C   -0.173981
     4  C   -0.238607
     5  C    0.120918
     6  N   -0.311460
     7  C   -0.030495
     8  C   -0.308746
     9  C    0.141759
    10  C   -0.259006
    11  H    0.174249
    12  H    0.170805
    13  H    0.269725
    14  H    0.183600
    15  H    0.158598
    16  H    0.174774
 Sum of Mulliken charges =  -0.00000

 Dipole moment (field-independent basis, Debye):
    X=             -4.8240    Y=              1.5350    Z=             -0.0005  Tot=              5.0623
 Quadrupole moment (field-independent basis, Debye-Ang):
   XX=            -55.7950   YY=            -61.2511   ZZ=            -76.0915
   XY=             -4.4210   XZ=              0.0019   YZ=             -0.0011

 Normal termination of Gaussian 16 at Tue Sep 17 10:31:19 2024.
