 Gaussian 16, Revision C.02,

 ----------------------------------------------------------------------
 #p B3LYP/6-31G(d,p) EmpiricalDispersion=GD3BJ opt freq scf(xqc,tight)
 integral(grid=ultrafine)
 ----------------------------------------------------------------------

 ----------------------------------
 opt-freq conformers_unique/conf_aa
 ----------------------------------
 Symbolic Z-matrix:
 Charge =  0 Multiplicity = 1

 SCF Done:  E(RB3LYP) =  -3128.16243256     A.U. after   15 cycles
 SCF Done:  E(RB3LYP) =  -3128.16478023     A.U. after   12 cycles
 SCF Done:  E(RB3LYP) =  -3128.16512941     A.U. after   12 cycles
 SCF Done:  E(RB3LYP) =  -3128.16543232     A.U. after   12 cycles
 SCF Done:  E(RB3LYP) =  -3128.16558376     A.U. after   10 cycles
 SCF Done:  E(RB3LYP) =  -3128.16561290     A.U. after   11 cycles
 SCF Done:  E(RB3LYP) =  -3128.16564277     A.U. after   11 cycles
 SCF Done:  E(RB3LYP) =  -3128.16565587     A.U. after   10 cycles
 SCF Done:  E(RB3LYP) =  -3128.16566377     A.U. after   10 cycles
 SCF Done:  E(RB3LYP) =  -3128.16566538     A.U. after    8 cycles
 SCF Done:  E(RB3LYP) =  -3128.16566554     A.U. after    8 cycles
 SCF Done:  E(RB3LYP) =  -3128.16566560     A.U. after    7 cycles
 SCF Done:  E(RB3LYP) =  -3128.16566561     A.U. after    6 cycles
 Optimization completed.
    -- Stationary point found.
 Normal termination of Gaussian 16 at Tue Sep 17 09:48:30 2024.

 ----------------------------------------------------------------------
 #P Geom=AllCheck Guess=TCheck SCRF=Check GenChk RB3LYP/6-31G(d,p) Freq
 ----------------------------------------------------------------------

 Structure from the checkpoint file:  "smiles_00087_conf_0.chk"
 ----------------------------------
 opt-freq conformers_unique/conf_aa
 ----------------------------------
 Charge =  0 Multiplicity = 1

 SCF Done:  E(RB3LYP) =  -3128.16566561     A.U. after    1 cycles

                      1                      2                      3
                      A                      A                      A
 Frequencies --     40.2092                59.0767                70.7603
 Red. masses --      4.8837                 3.4853                 3.5366
 Frc consts  --      0.0047                 0.0072                 0.0104
 IR Inten    --      0.3929                 0.5688                 0.2698

                      4                      5                      6
                      A                      A                      A
 Frequencies --     94.6771               133.6497               181.1009
 Red. masses --      4.0552                 5.7271                 4.6816
 Frc consts  --      0.0214                 0.0603                 0.0905
 IR Inten    --      2.4793                 0.6879                 0.2806

                      7                      8                      9
                      A                      A                      A
 Frequencies --    225.5555               228.9104               271.6597
 Red. masses --      8.0524                 3.9968                 2.1312
 Frc consts  --      0.2414                 0.1234                 0.0927
 IR Inten    --      0.1609                 6.9575                 1.9159

                     10                     11                     12
                      A                      A                      A
 Frequencies --    289.8975               305.1896               391.7873
 Red. masses --      3.1781                 4.9891                 5.5094
 Frc consts  --      0.1574                 0.2738                 0.4983
 IR Inten    --      3.9065                 4.3993                 0.8177

                     13                     14                     15
                      A                      A                      A
 Frequencies --    423.9374               446.5900               493.9156
 Red. masses --      3.0110                 6.9782                 3.8318
 Frc consts  --      0.3188                 0.8200                 0.5508
 IR Inten    --      0.0123                20.8810                 8.5264

                     16                     17                     18
                      A                      A                      A
 Frequencies --    577.4431               600.5023               644.9754
 Red. masses --      1.9973                 3.7741                 6.9351
 Frc consts  --      0.3924                 0.8019                 1.6998
 IR Inten    --      4.0225                 2.1012                 1.6936

                     19                     20                     21
                      A                      A                      A
 Frequencies --    698.3218               710.4176               763.3087
 Red. masses --      5.3180                 4.4566                 3.0600
 Frc consts  --      1.5279                 1.3252                 1.0504
 IR Inten    --      8.6219                 5.1261                 7.6022

                     22                     23                     24
                      A                      A                      A
 Frequencies --    769.1536               851.5639               860.4518
 Red. masses --      3.8315                 1.3153                 1.7258
 Frc consts  --      1.3355                 0.5620                 0.7528
 IR Inten    --     24.2661                10.2197                16.2817

                     25                     26                     27
                      A                      A                      A
 Frequencies --    865.2417               891.1095               916.9367
 Red. masses --      1.6481                 1.9550                 3.2444
 Frc consts  --      0.7270                 0.9147                 1.6072
 IR Inten    --     15.0407                 8.9057                 8.7107

                     28                     29                     30
                      A                      A                      A
 Frequencies --    929.5824               951.6233               979.3257
 Red. masses --      2.2094                 1.6237                 1.3336
 Frc consts  --      1.1248                 0.8663                 0.7536
 IR Inten    --      2.3881                14.0544                 0.1654

                     31                     32                     33
                      A                      A                      A
 Frequencies --    986.1246               990.9872              1031.1765
 Red. masses --      1.7509                 1.3639                 4.2894
 Frc consts  --      1.0032                 0.7892                 2.6873
 IR Inten    --      1.1702                 1.9381                45.0891

                     34                     35                     36
                      A                      A                      A
 Frequencies --   1046.8086              1094.2405              1134.8948
 Red. masses --      1.8956                 2.6953                 1.3332
 Frc consts  --      1.2238                 1.9014                 1.0117
 IR Inten    --      0.9533                30.9741                 9.0170

                     37                     38                     39
                      A                      A                      A
 Frequencies --   1144.4375              1171.6428              1184.8835
 Red. masses --      1.6671                 1.7948                 2.1507
 Frc consts  --      1.2865                 1.4516                 1.7791
 IR Inten    --      7.4789                 6.0957                 6.8203

                     40                     41                     42
                      A                      A                      A
 Frequencies --   1203.6181              1209.0417              1235.9998
 Red. masses --      1.3179                 1.5202                 2.3420
 Frc consts  --      1.1249                 1.3093                 2.1081
 IR Inten    --      3.2755                12.8319                25.6971

                     43                     44                     45
                      A                      A                      A
 Frequencies --   1258.7534              1280.4650              1326.3003
 Red. masses --      1.2732                 1.3219                 1.3177
 Frc consts  --      1.1886                 1.2770                 1.3656
 IR Inten    --     16.5002                13.6720                 0.0729

                     46                     47                     48
                      A                      A                      A
 Frequencies --   1329.7101              1344.0432              1357.4820
 Red. masses --      1.3052                10.1814                 1.2936
 Frc consts  --      1.3597                10.8364                 1.4044
 IR Inten    --      0.1536                 3.7555                 2.7320

                     49                     50                     51
                      A                      A                      A
 Frequencies --   1376.3709              1385.8974              1426.0108
 Red. masses --      1.5117                 1.4094                 3.9750
 Frc consts  --      1.6873                 1.5950                 4.7625
 IR Inten    --      1.4153                 6.7014               246.7715

                     52                     53                     54
                      A                      A                      A
 Frequencies --   1443.4064              1504.2153              1511.8170
 Red. masses --      4.0296                 1.0913                 1.1033
 Frc consts  --      4.9464                 1.4548                 1.4857
 IR Inten    --    270.0120                 3.3966                 3.0425

                     55                     56                     57
                      A                      A                      A
 Frequencies --   1528.6399              1530.6780              1541.5357
 Red. masses --      1.0965                 2.2694                 1.1246
 Frc consts  --      1.5097                 3.1327                 1.5745
 IR Inten    --      1.0278                 9.9060                 3.1698

                     58                     59                     60
                      A                      A                      A
 Frequencies --   1621.1209              1647.9266              1731.0848
 Red. masses --      7.3253                 5.7862                12.0020
 Frc consts  --     11.3424                 9.2580                21.1905
 IR Inten    --      3.6580                60.7594               259.9566

                     61                     62                     63
                      A                      A                      A
 Frequencies --   3017.9584              3055.7808              3058.4861
 Red. masses --      1.0716                 1.0690                 1.0654
 Frc consts  --      5.7505                 5.8812                 5.8716
 IR Inten    --     42.4289                24.3386                17.8354

                     64                     65                     66
                      A                      A                      A
 Frequencies --   3064.0781              3104.4116              3118.5183
 Red. masses --      1.0613                 1.1000                 1.0970
 Frc consts  --      5.8706                 6.2459                 6.2859
 IR Inten    --     24.4071                27.1022                22.4498

                     67                     68                     69
                      A                      A                      A
 Frequencies --   3122.3097              3128.4606              3208.3888
 Red. masses --      1.0968                 1.1046                 1.0878
 Frc consts  --      6.3001                 6.3694                 6.5976
 IR Inten    --     20.6951                39.4148                 5.0389

                     70                     71                     72
                      A                      A                      A
 Frequencies --   3214.6522              3224.6422              3227.8467
 Red. masses --      1.0882                 1.0949                 1.0956
 Frc consts  --      6.6257                 6.7077                 6.7257
 IR Inten    --      0.0394                 5.0731                 1.0265

 - Thermochemistry -
 -------------------
 Temperature   298.150 Kelvin.  Pressure   1.00000 Atm.
 Atom     1 has atomic number  8 and mass  15.99491

 Molecular mass:   253.01023 amu.
 Principal axes and moments of inertia in atomic units:
                           1         2         3
     Eigenvalues --  1095.634349686.65638**********
           X            0.99985  -0.01689  -0.00266
           Y            0.01683   0.99968  -0.01880
           Z            0.00298   0.01875   0.99982
 This molecule is an asymmetric top.
 Rotational symmetry number  1.
 Warning -- assumption of classical behavior for rotation
           may cause significant error
 Rotational temperatures (Kelvin)      0.07905     0.00894     0.00832
 Rotational constants (GHZ):           1.64721     0.18631     0.17327
 Zero-point vibrational energy     555017.7 (Joules/Mol)
                                  132.65243 (Kcal/Mol)
 Warning -- explicit consideration of  17 degrees of freedom as
           vibrations may cause significant error
 Vibrational temperatures:     57.85    85.00   101.81   136.22   192.29
          (Kelvin)            260.56   324.52   329.35   390.86   417.10
                              439.10   563.69   609.95   642.54   710.63
                              830.81   863.99   927.98  1004.73  1022.13
                             1098.23  1106.64  1225.21  1238.00  1244.89
                             1282.11  1319.27  1337.46  1369.17  1409.03
                             1418.81  1425.81  1483.63  1506.12  1574.37
                             1632.86  1646.59  1685.73  1704.78  1731.74
                             1739.54  1778.33  1811.07  1842.30  1908.25
                             1913.16  1933.78  1953.11  1980.29  1994.00
                             2051.71  2076.74  2164.23  2175.17  2199.37
                             2202.30  2217.93  2332.43  2371.00  2490.64
                             4342.17  4396.59  4400.48  4408.53  4466.56
                             4486.85  4492.31  4501.16  4616.16  4625.17
                             4639.54  4644.15

 Zero-point correction=                           0.211395 (Hartree/Particle)
 Thermal correction to Energy=                    0.223852
 Thermal correction to Enthalpy=                  0.224796
 Thermal correction to Gibbs Free Energy=         0.170478
 Sum of electronic and zero-point Energies=          -3127.954271
 Sum of electronic and thermal Energies=             -3127.941813
 Sum of electronic and thermal Enthalpies=           -3127.940869
 Sum of electronic and thermal Free Energies=        -3127.995188

                     E (Thermal)             CV                S
                      KCal/Mol        Cal/Mol-Kelvin    Cal/Mol-Kelvin
 Total                  140.469             46.897            114.323
 Electronic               0.000              0.000              0.000
 Translational            0.889              2.981             42.485
 Rotational               0.889              2.981             33.069
 Vibrational            138.692             40.936             38.770
 Vibration     1          0.594              1.981              5.249
 Vibration     2          0.596              1.974              4.488
 Vibration     3          0.598              1.968              4.132
 Vibration     4          0.603              1.953              3.561
 Vibration     5          0.613              1.920              2.893
 Vibration     6          0.630              1.865              2.317
 Vibration     7          0.650              1.802              1.914
 Vibration     8          0.652              1.797              1.887
 Vibration     9          0.675              1.725              1.586
 Vibration    10          0.686              1.693              1.475
 Vibration    11          0.696              1.664              1.388
 Vibration    12          0.759              1.488              0.993
 Vibration    13          0.786              1.418              0.879
 Vibration    14          0.806              1.368              0.806
 Vibration    15          0.850              1.264              0.674
 Vibration    16          0.934              1.080              0.490
 Vibration    17          0.959              1.031              0.449

 Optimization completed.
    -- Stationary point found.
 Normal termination of Gaussian 16 at Tue Sep 17 09:51:28 2024.

 ----------------------------------------------------------------------
 #p M062X/def2tzvp geom=check guess=read scf(xqc,tight) integral(grid=u
 ltrafine) scrf(SMD, solvent=1,4-Dioxane) polar prop=efg volume
 ----------------------------------------------------------------------

 ---
 spe
 ---
 Structure from the checkpoint file:  "smiles_00087_conf_0.chk"
 Charge =  0 Multiplicity = 1

 SCF Done:  E(RM062X) =  -3130.56618175     A.U. after   12 cycles

  Exact polarizability:     251.634       4.737     165.447       6.599     -14.570     123.699
 Approx polarizability:     232.188       9.325     195.289       8.529     -21.431     151.571

 Normal termination of Gaussian 16 at Tue Sep 17 11:11:13 2024.
 Gaussian 16:  ES64L-G16RevC.02  7-Dec-2021

 ----------------------------------------------------------------------
 #p M062X/def2tzvp geom=check guess=read scf(xqc,tight) integral(grid=u
 ltrafine) scrf(SMD, solvent=1,4-Dioxane) nmr=giao
 ----------------------------------------------------------------------

 ---
 spe
 ---
 Structure from the checkpoint file:  "smiles_00087_conf_0.chk"
 Charge =  0 Multiplicity = 1

                         Standard orientation:
 ---------------------------------------------------------------------
 Center     Atomic      Atomic             Coordinates (Angstroms)
 Number     Number       Type             X           Y           Z
 ---------------------------------------------------------------------
      1          8           0        2.211698    2.245923    0.275160
      2          6           0        1.912385    1.052696    0.224558
      3          6           0        0.472354    0.634306    0.151371
      4          6           0       -0.039454   -0.491303    0.806826
      5          6           0       -1.399880   -0.789186    0.753231
      6          6           0       -2.245836    0.046425    0.028664
      7         35           0       -4.107858   -0.365037   -0.066351
      8          6           0       -1.762790    1.181845   -0.620665
      9          6           0       -0.405641    1.476004   -0.542656
     10          7           0        2.873900    0.080412    0.246545
     11          6           0        4.282603    0.513168    0.277509
     12          6           0        5.068661   -0.773204   -0.001161
     13          6           0        4.105514   -1.587206   -0.877262
     14          6           0        2.744949   -1.307909   -0.227453
     15          1           0        0.617232   -1.129481    1.387130
     16          1           0       -1.799793   -1.653594    1.269825
     17          1           0       -2.441089    1.824722   -1.168989
     18          1           0       -0.005509    2.368615   -1.010218
     19          1           0        4.444397    1.275590   -0.492900
     20          1           0        4.521060    0.972769    1.240365
     21          1           0        6.029081   -0.574631   -0.482538
     22          1           0        5.266873   -1.309041    0.933926
     23          1           0        4.112407   -1.202971   -1.903266
     24          1           0        4.339959   -2.654099   -0.911858
     25          1           0        1.904687   -1.410023   -0.916518
     26          1           0        2.577658   -1.995639    0.612440
 ---------------------------------------------------------------------

 SCF Done:  E(RM062X) =  -3130.56618175     A.U. after    1 cycles

      1  O    Isotropic =  -143.5581   Anisotropy =   683.8422

      2  C    Isotropic =    -4.3740   Anisotropy =   133.7752

      3  C    Isotropic =    25.5958   Anisotropy =   206.4170

      4  C    Isotropic =    33.7420   Anisotropy =   211.1385

      5  C    Isotropic =    33.6798   Anisotropy =   183.4958

      6  C    Isotropic =    20.9766   Anisotropy =   148.1252

      7  Br   Isotropic =  2070.2821   Anisotropy =  1283.0754

      8  C    Isotropic =    30.3788   Anisotropy =   185.0234

      9  C    Isotropic =    30.1860   Anisotropy =   217.0608

     10  N    Isotropic =   104.2829   Anisotropy =   182.2716

     11  C    Isotropic =   134.5105   Anisotropy =    41.7769

     12  C    Isotropic =   158.0106   Anisotropy =    20.4971

     13  C    Isotropic =   156.0112   Anisotropy =    18.7256

     14  C    Isotropic =   130.9098   Anisotropy =    40.0329

     15  H    Isotropic =    23.4411   Anisotropy =    10.0856

     16  H    Isotropic =    23.6674   Anisotropy =    10.5966

     17  H    Isotropic =    23.5178   Anisotropy =    10.3559

     18  H    Isotropic =    23.1241   Anisotropy =     8.9482

     19  H    Isotropic =    28.1828   Anisotropy =     8.3100

     20  H    Isotropic =    28.3651   Anisotropy =     8.2490

     21  H    Isotropic =    29.8464   Anisotropy =    10.9353

     22  H    Isotropic =    29.9625   Anisotropy =    10.0733

     23  H    Isotropic =    30.1764   Anisotropy =     9.3473

     24  H    Isotropic =    30.0226   Anisotropy =    10.8864

     25  H    Isotropic =    28.2853   Anisotropy =     7.1519

     26  H    Isotropic =    28.2223   Anisotropy =     8.8269

 The electronic state is 1-A.
 Alpha  occ. eigenvalues -- -485.37857 -63.36337 -57.18281 -57.18047 -57.18039
 Alpha  occ. eigenvalues --  -19.58970 -14.77388 -10.64302 -10.60998 -10.57627
 Alpha  occ. eigenvalues --  -10.56548 -10.56360 -10.56251 -10.56134 -10.55996
 Alpha  occ. eigenvalues --  -10.55747 -10.54133 -10.53919  -9.02982  -6.85387
 Alpha  occ. eigenvalues --   -6.84519  -6.84492  -2.88764  -2.88451  -2.88421
 Alpha  occ. eigenvalues --   -2.87612  -2.87611  -1.15637  -1.04950  -0.98638
 Alpha  occ. eigenvalues --   -0.91121  -0.88842  -0.86091  -0.83870  -0.82405
 Alpha  occ. eigenvalues --   -0.74044  -0.71031  -0.69185  -0.67385  -0.63630
 Alpha  occ. eigenvalues --   -0.60799  -0.57914  -0.55379  -0.54267  -0.52565
 Alpha  occ. eigenvalues --   -0.51763  -0.50584  -0.49776  -0.49413  -0.47299
 Alpha  occ. eigenvalues --   -0.46711  -0.45771  -0.43600  -0.42239  -0.41914
 Alpha  occ. eigenvalues --   -0.41435  -0.40799  -0.39541  -0.37922  -0.35475
 Alpha  occ. eigenvalues --   -0.33606  -0.32418  -0.30378  -0.29908
 Alpha virt. eigenvalues --   -0.01477   0.00525   0.03376   0.05995   0.07569
 Alpha virt. eigenvalues --    0.09251   0.10406   0.10680   0.11426   0.11836
 Alpha virt. eigenvalues --    0.12363   0.13213   0.13765   0.14507   0.15541

 Mulliken charges:
               1
     1  O   -0.424706
     2  C    0.280847
     3  C    0.060784
     4  C   -0.203044
     5  C   -0.158349
     6  C    0.047545
     7  Br  -0.107897
     8  C   -0.160213
     9  C   -0.188515
    10  N   -0.150393
    11  C   -0.193167
    12  C   -0.293561
    13  C   -0.281385
    14  C   -0.252761
    15  H    0.194297
    16  H    0.182401
    17  H    0.184067
    18  H    0.182751
    19  H    0.162644
    20  H    0.156216
    21  H    0.155233
    22  H    0.154275
    23  H    0.156968
    24  H    0.155360
    25  H    0.187245
    26  H    0.153361
 Sum of Mulliken charges =  -0.00000

 Dipole moment (field-independent basis, Debye):
    X=              2.4698    Y=             -4.0569    Z=             -0.7072  Tot=              4.8019
 Quadrupole moment (field-independent basis, Debye-Ang):
   XX=            -88.9618   YY=            -99.8809   ZZ=            -94.3421
   XY=            -12.1820   XZ=             -1.1984   YZ=             -5.3351

 Normal termination of Gaussian 16 at Tue Sep 17 11:40:02 2024.
