 Gaussian 16, Revision C.02,

 ----------------------------------------------------------------------
 #p B3LYP/6-31G(d,p) EmpiricalDispersion=GD3BJ opt freq scf(xqc,tight)
 integral(grid=ultrafine)
 ----------------------------------------------------------------------

 ----------------------------------
 opt-freq conformers_unique/conf_aa
 ----------------------------------
 Symbolic Z-matrix:
 Charge =  0 Multiplicity = 1

 SCF Done:  E(RB3LYP) =  -2972.07383568     A.U. after   15 cycles
 SCF Done:  E(RB3LYP) =  -2972.07535105     A.U. after   12 cycles
 SCF Done:  E(RB3LYP) =  -2972.07543260     A.U. after    9 cycles
 SCF Done:  E(RB3LYP) =  -2972.07543524     A.U. after    9 cycles
 SCF Done:  E(RB3LYP) =  -2972.07543918     A.U. after    9 cycles
 Optimization completed.
    -- Stationary point found.
 Normal termination of Gaussian 16 at Tue Sep 17 09:52:25 2024.

 ----------------------------------------------------------------------
 #P Geom=AllCheck Guess=TCheck SCRF=Check GenChk RB3LYP/6-31G(d,p) Freq
 ----------------------------------------------------------------------

 Structure from the checkpoint file:  "smiles_00067_conf_0.chk"
 ----------------------------------
 opt-freq conformers_unique/conf_aa
 ----------------------------------
 Charge =  0 Multiplicity = 1

 SCF Done:  E(RB3LYP) =  -2972.07543918     A.U. after    1 cycles

                      1                      2                      3
                      A                      A                      A
 Frequencies --     54.1289               135.5422               142.8359
 Red. masses --      4.1838                 9.0217                 6.0279
 Frc consts  --      0.0072                 0.0977                 0.0725
 IR Inten    --      3.9944                 1.6363                 2.2464

                      4                      5                      6
                      A                      A                      A
 Frequencies --    166.3353               186.8278               267.1227
 Red. masses --      1.0716                 3.3692                 4.1262
 Frc consts  --      0.0175                 0.0693                 0.1735
 IR Inten    --      0.2124                 0.1212                 6.7661

                      7                      8                      9
                      A                      A                      A
 Frequencies --    302.0933               391.4175               426.6911
 Red. masses --      9.1354                 6.3269                 3.8365
 Frc consts  --      0.4912                 0.5711                 0.4115
 IR Inten    --      0.7796                 4.6935                 2.4638

                     10                     11                     12
                      A                      A                      A
 Frequencies --    471.8369               478.0279               597.2566
 Red. masses --      4.4568                 4.2815                 4.5686
 Frc consts  --      0.5846                 0.5764                 0.9602
 IR Inten    --      0.0471                 3.9915                20.4898

                     13                     14                     15
                      A                      A                      A
 Frequencies --    626.3491               667.8306               719.2534
 Red. masses --      2.9448                 7.8868                 2.3611
 Frc consts  --      0.6807                 2.0725                 0.7197
 IR Inten    --      0.0371                21.9509                16.3846

                     16                     17                     18
                      A                      A                      A
 Frequencies --    812.3762               921.4047               973.7513
 Red. masses --      7.6039                 1.5459                 1.4431
 Frc consts  --      2.9566                 0.7733                 0.8062
 IR Inten    --     31.4815                10.6976                 1.6086

                     19                     20                     21
                      A                      A                      A
 Frequencies --    975.8251               983.9066              1038.4986
 Red. masses --      2.0637                 1.3593                 5.0674
 Frc consts  --      1.1578                 0.7753                 3.2200
 IR Inten    --     11.8051                 3.1476                21.9123

                     22                     23                     24
                      A                      A                      A
 Frequencies --   1050.1172              1106.3952              1114.8271
 Red. masses --      1.8896                 2.5785                 2.1095
 Frc consts  --      1.2277                 1.8597                 1.5447
 IR Inten    --      0.9367                 1.9451                10.3759

                     25                     26                     27
                      A                      A                      A
 Frequencies --   1203.9474              1285.4938              1302.7902
 Red. masses --      2.0710                 2.4860                 6.3538
 Frc consts  --      1.7687                 2.4204                 6.3538
 IR Inten    --     11.2940               259.1850                 3.9318

                     28                     29                     30
                      A                      A                      A
 Frequencies --   1342.4525              1397.3595              1456.3048
 Red. masses --      1.5682                 1.3346                 2.2600
 Frc consts  --      1.6651                 1.5354                 2.8240
 IR Inten    --      2.7128                45.3049                62.0399

                     31                     32                     33
                      A                      A                      A
 Frequencies --   1476.7558              1483.2119              1490.5453
 Red. masses --      1.9777                 1.2519                 1.0471
 Frc consts  --      2.5411                 1.6227                 1.3707
 IR Inten    --     19.3131                 5.1954                10.5698

                     34                     35                     36
                      A                      A                      A
 Frequencies --   1602.9459              1629.8871              1787.9315
 Red. masses --      5.9076                 5.9743                11.0470
 Frc consts  --      8.9433                 9.3509                20.8065
 IR Inten    --      1.0912                32.2176               142.8201

                     37                     38                     39
                      A                      A                      A
 Frequencies --   3051.3674              3114.9956              3173.6371
 Red. masses --      1.0379                 1.0999                 1.1020
 Frc consts  --      5.6935                 6.2880                 6.5395
 IR Inten    --      1.7518                 6.3722                10.1026

                     40                     41                     42
                      A                      A                      A
 Frequencies --   3189.2736              3193.4483              3232.4575
 Red. masses --      1.0889                 1.0935                 1.0922
 Frc consts  --      6.5254                 6.5702                 6.7236
 IR Inten    --     15.3024                 1.9763                 4.1516

 - Thermochemistry -
 -------------------
 Temperature   298.150 Kelvin.  Pressure   1.00000 Atm.
 Atom     1 has atomic number  6 and mass  12.00000

 Molecular mass:   198.96327 amu.
 Principal axes and moments of inertia in atomic units:
                           1         2         3
     Eigenvalues --   857.662623851.270804697.72861
           X            0.99995   0.00971  -0.00001
           Y           -0.00971   0.99995  -0.00000
           Z            0.00001   0.00000   1.00000
 This molecule is an asymmetric top.
 Rotational symmetry number  1.
 Warning -- assumption of classical behavior for rotation
           may cause significant error
 Rotational temperatures (Kelvin)      0.10099     0.02249     0.01844
 Rotational constants (GHZ):           2.10426     0.46861     0.38417
 Zero-point vibrational energy     305200.0 (Joules/Mol)
                                   72.94455 (Kcal/Mol)
 Warning -- explicit consideration of  12 degrees of freedom as
           vibrations may cause significant error
 Vibrational temperatures:     77.88   195.01   205.51   239.32   268.80
          (Kelvin)            384.33   434.64   563.16   613.91   678.87
                              687.78   859.32   901.18   960.86  1034.85
                             1168.83  1325.70  1401.01  1403.99  1415.62
                             1494.17  1510.88  1591.86  1603.99  1732.21
                             1849.54  1874.42  1931.49  2010.49  2095.30
                             2124.72  2134.01  2144.56  2306.28  2345.04
                             2572.43  4390.24  4481.78  4566.16  4588.65
                             4594.66  4650.79

 Zero-point correction=                           0.116245 (Hartree/Particle)
 Thermal correction to Energy=                    0.125374
 Thermal correction to Enthalpy=                  0.126318
 Thermal correction to Gibbs Free Energy=         0.080300
 Sum of electronic and zero-point Energies=          -2971.959195
 Sum of electronic and thermal Energies=             -2971.950065
 Sum of electronic and thermal Enthalpies=           -2971.949121
 Sum of electronic and thermal Free Energies=        -2971.995140

                     E (Thermal)             CV                S
                      KCal/Mol        Cal/Mol-Kelvin    Cal/Mol-Kelvin
 Total                   78.673             32.826             96.854
 Electronic               0.000              0.000              0.000
 Translational            0.889              2.981             41.769
 Rotational               0.889              2.981             31.118
 Vibrational             76.896             26.864             23.967
 Vibration     1          0.596              1.976              4.661
 Vibration     2          0.613              1.918              2.866
 Vibration     3          0.616              1.910              2.766
 Vibration     4          0.624              1.884              2.476
 Vibration     5          0.632              1.858              2.259
 Vibration     6          0.672              1.733              1.615
 Vibration     7          0.694              1.670              1.405
 Vibration     8          0.759              1.489              0.995
 Vibration     9          0.788              1.412              0.870
 Vibration    10          0.829              1.313              0.732
 Vibration    11          0.835              1.299              0.715
 Vibration    12          0.955              1.038              0.454

                           ! Non-Optimized Parameters !
 Normal termination of Gaussian 16 at Tue Sep 17 09:53:10 2024.

 ----------------------------------------------------------------------
 #p M062X/def2tzvp geom=check guess=read scf(xqc,tight) integral(grid=u
 ltrafine) scrf(SMD, solvent=1,4-Dioxane) polar prop=efg volume
 ----------------------------------------------------------------------

 ---
 spe
 ---
 Structure from the checkpoint file:  "smiles_00067_conf_0.chk"
 Charge =  0 Multiplicity = 1

 SCF Done:  E(RM062X) =  -2974.51527507     A.U. after   12 cycles

  Exact polarizability:     173.472      -2.467     130.930      -0.001      -0.001      70.395
 Approx polarizability:     171.364      -3.886     158.953      -0.000       0.001      88.131

 Normal termination of Gaussian 16 at Tue Sep 17 10:14:29 2024.
 Gaussian 16:  ES64L-G16RevC.02  7-Dec-2021

 ----------------------------------------------------------------------
 #p M062X/def2tzvp geom=check guess=read scf(xqc,tight) integral(grid=u
 ltrafine) scrf(SMD, solvent=1,4-Dioxane) nmr=giao
 ----------------------------------------------------------------------

 ---
 spe
 ---
 Structure from the checkpoint file:  "smiles_00067_conf_0.chk"
 Charge =  0 Multiplicity = 1

                         Standard orientation:
 ---------------------------------------------------------------------
 Center     Atomic      Atomic             Coordinates (Angstroms)
 Number     Number       Type             X           Y           Z
 ---------------------------------------------------------------------
      1          6           0       -4.110541   -0.104543    0.000494
      2          6           0       -2.749344   -0.768014    0.000125
      3          8           0       -2.633344   -1.982200   -0.000633
      4          6           0       -1.527662    0.102918    0.000083
      5          6           0       -1.575531    1.501753   -0.000094
      6          7           0       -0.487918    2.281409   -0.000246
      7          6           0        0.706738    1.685343   -0.000179
      8          6           0        0.853839    0.294263   -0.000009
      9         35           0        2.600501   -0.464028    0.000077
     10          6           0       -0.270631   -0.514355    0.000080
     11          1           0       -4.232685    0.532112   -0.882350
     12          1           0       -4.231635    0.533974    0.882099
     13          1           0       -4.878253   -0.877833    0.001644
     14          1           0       -2.527793    2.024704   -0.000158
     15          1           0        1.582966    2.327728   -0.000272
     16          1           0       -0.209185   -1.596156    0.000136
 ---------------------------------------------------------------------

 SCF Done:  E(RM062X) =  -2974.51527507     A.U. after    1 cycles

      1  C    Isotropic =   155.5457   Anisotropy =    50.3272

      2  C    Isotropic =   -39.5000   Anisotropy =   209.4220

      3  O    Isotropic =  -418.9244   Anisotropy =  1163.8441

      4  C    Isotropic =    31.6140   Anisotropy =   188.9491

      5  C    Isotropic =    11.6273   Anisotropy =   204.3628

      6  N    Isotropic =  -146.0209   Anisotropy =   644.9787

      7  C    Isotropic =     4.4600   Anisotropy =   185.2151

      8  C    Isotropic =    26.0257   Anisotropy =   143.2575

      9  Br   Isotropic =  2119.1145   Anisotropy =  1217.1846

     10  C    Isotropic =    22.7845   Anisotropy =   220.0551

     11  H    Isotropic =    28.9641   Anisotropy =     4.7035

     12  H    Isotropic =    28.9609   Anisotropy =     4.6951

     13  H    Isotropic =    29.3516   Anisotropy =     6.2834

     14  H    Isotropic =    21.7713   Anisotropy =     8.5248

     15  H    Isotropic =    22.1636   Anisotropy =    11.8460

     16  H    Isotropic =    22.4783   Anisotropy =    12.0418

 The electronic state is 1-A.
 Alpha  occ. eigenvalues -- -485.38772 -63.37247 -57.19197 -57.18953 -57.18946
 Alpha  occ. eigenvalues --  -19.63116 -14.77355 -10.64799 -10.61961 -10.60374
 Alpha  occ. eigenvalues --  -10.60028 -10.58318 -10.57673 -10.54534  -9.03891
 Alpha  occ. eigenvalues --   -6.86317  -6.85412  -6.85390  -2.89693  -2.89366
 Alpha  occ. eigenvalues --   -2.89341  -2.88498  -2.88497  -1.17826  -1.07772
 Alpha  occ. eigenvalues --   -0.94994  -0.91575  -0.85495  -0.83502  -0.75100
 Alpha  occ. eigenvalues --   -0.72723  -0.64280  -0.61583  -0.58845  -0.55671
 Alpha  occ. eigenvalues --   -0.53022  -0.51525  -0.50342  -0.49625  -0.49187
 Alpha  occ. eigenvalues --   -0.46801  -0.44680  -0.44185  -0.40693  -0.36837
 Alpha  occ. eigenvalues --   -0.35637  -0.35496  -0.33629  -0.31828
 Alpha virt. eigenvalues --   -0.04687  -0.01493   0.02828   0.05357   0.07076
 Alpha virt. eigenvalues --    0.10684   0.12479   0.12903   0.13095   0.14241
 Alpha virt. eigenvalues --    0.14830   0.16429   0.16555   0.17329   0.20547

 Mulliken charges:
               1
     1  C   -0.535492
     2  C    0.295866
     3  O   -0.327850
     4  C    0.007014
     5  C   -0.074666
     6  N   -0.233510
     7  C   -0.054678
     8  C    0.046381
     9  Br  -0.080124
    10  C   -0.161957
    11  H    0.185945
    12  H    0.185835
    13  H    0.171938
    14  H    0.183531
    15  H    0.183196
    16  H    0.208572
 Sum of Mulliken charges =  -0.00000

 Dipole moment (field-independent basis, Debye):
    X=             -1.5155    Y=              1.5662    Z=              0.0014  Tot=              2.1794
 Quadrupole moment (field-independent basis, Debye-Ang):
   XX=            -60.8451   YY=            -80.3474   ZZ=            -71.2681
   XY=             -6.2360   XZ=             -0.0036   YZ=             -0.0029

 Normal termination of Gaussian 16 at Tue Sep 17 10:22:33 2024.
