 Gaussian 16, Revision C.02,

 ----------------------------------------------------------------------
 #p B3LYP/6-31G(d,p) EmpiricalDispersion=GD3BJ opt freq scf(xqc,tight)
 integral(grid=ultrafine)
 ----------------------------------------------------------------------

 ----------------------------------
 opt-freq conformers_unique/conf_aa
 ----------------------------------
 Symbolic Z-matrix:
 Charge =  0 Multiplicity = 1

 SCF Done:  E(RB3LYP) =  -3034.47356472     A.U. after   14 cycles
 SCF Done:  E(RB3LYP) =  -3034.47509001     A.U. after   11 cycles
 SCF Done:  E(RB3LYP) =  -3034.47514340     A.U. after   10 cycles
 SCF Done:  E(RB3LYP) =  -3034.47515103     A.U. after    9 cycles
 SCF Done:  E(RB3LYP) =  -3034.47515175     A.U. after    8 cycles
 Optimization completed.
    -- Stationary point found.
 Normal termination of Gaussian 16 at Tue Sep 17 09:43:59 2024.

 ----------------------------------------------------------------------
 #P Geom=AllCheck Guess=TCheck SCRF=Check GenChk RB3LYP/6-31G(d,p) Freq
 ----------------------------------------------------------------------

 Structure from the checkpoint file:  "smiles_00070_conf_0.chk"
 ----------------------------------
 opt-freq conformers_unique/conf_aa
 ----------------------------------
 Charge =  0 Multiplicity = 1

 SCF Done:  E(RB3LYP) =  -3034.47515175     A.U. after    1 cycles

                      1                      2                      3
                      A                      A                      A
 Frequencies --     52.6613                71.3905                93.0673
 Red. masses --      6.8969                 3.7140                 5.5951
 Frc consts  --      0.0113                 0.0112                 0.0286
 IR Inten    --      0.0044                 0.0000                 0.0498

                      4                      5                      6
                      A                      A                      A
 Frequencies --    171.3538               215.6465               239.3582
 Red. masses --      5.7386                12.1068                 5.6461
 Frc consts  --      0.0993                 0.3317                 0.1906
 IR Inten    --      0.2832                 0.8350                 0.0921

                      7                      8                      9
                      A                      A                      A
 Frequencies --    324.3904               405.2196               415.7480
 Red. masses --      4.8600                 4.2272                 3.7360
 Frc consts  --      0.3013                 0.4090                 0.3805
 IR Inten    --      0.0771                 1.1382                 1.9721

                     10                     11                     12
                      A                      A                      A
 Frequencies --    418.6990               428.2143               507.9131
 Red. masses --      4.0581                 3.5415                 3.4944
 Frc consts  --      0.4192                 0.3826                 0.5311
 IR Inten    --      6.4783                 1.6852                 8.4762

                     13                     14                     15
                      A                      A                      A
 Frequencies --    557.6556               632.9982               650.7518
 Red. masses --      2.8153                 6.4977                 6.8377
 Frc consts  --      0.5158                 1.5340                 1.7060
 IR Inten    --      2.5754                 0.0347                 0.4708

                     16                     17                     18
                      A                      A                      A
 Frequencies --    656.6070               714.3028               734.5225
 Red. masses --      7.0438                 1.9512                 3.0415
 Frc consts  --      1.7892                 0.5866                 0.9668
 IR Inten    --      0.3491                19.7870                 6.7121

                     19                     20                     21
                      A                      A                      A
 Frequencies --    770.4713               777.4617               849.1632
 Red. masses --      6.0184                 1.8612                 1.2449
 Frc consts  --      2.1050                 0.6628                 0.5289
 IR Inten    --     14.5326                40.4134                 0.2607

                     22                     23                     24
                      A                      A                      A
 Frequencies --    852.8244               860.6101               931.7293
 Red. masses --      1.5679                 1.2451                 1.4098
 Frc consts  --      0.6719                 0.5433                 0.7211
 IR Inten    --     26.7967                 0.1652                 1.0522

                     25                     26                     27
                      A                      A                      A
 Frequencies --    974.8682               979.2101               980.1078
 Red. masses --      1.3507                 1.3327                 1.3503
 Frc consts  --      0.7563                 0.7529                 0.7642
 IR Inten    --      0.5213                 0.0610                 0.6135

                     28                     29                     30
                      A                      A                      A
 Frequencies --    999.4266              1017.9534              1023.1523
 Red. masses --      1.2538                 6.3656                 6.0028
 Frc consts  --      0.7379                 3.8864                 3.7024
 IR Inten    --      0.0885                18.8963                25.0141

                     31                     32                     33
                      A                      A                      A
 Frequencies --   1041.4294              1069.6605              1098.5282
 Red. masses --      4.3984                 1.9345                 2.4389
 Frc consts  --      2.8107                 1.3041                 1.7341
 IR Inten    --      1.9167                 1.7823                33.6408

                     34                     35                     36
                      A                      A                      A
 Frequencies --   1113.1132              1138.8334              1189.4475
 Red. masses --      1.5781                 1.3479                 1.0940
 Frc consts  --      1.1521                 1.0300                 0.9119
 IR Inten    --      3.6214                 4.3388                 0.0538

                     37                     38                     39
                      A                      A                      A
 Frequencies --   1208.4304              1217.0570              1312.7019
 Red. masses --      1.1267                 1.1352                 2.5385
 Frc consts  --      0.9694                 0.9907                 2.5773
 IR Inten    --      0.5144                 0.4027                 2.3903

                     40                     41                     42
                      A                      A                      A
 Frequencies --   1317.9122              1332.9216              1347.5484
 Red. masses --      3.3566                 1.6541                 3.6081
 Frc consts  --      3.4349                 1.7315                 3.8603
 IR Inten    --      0.4058                 0.0016                 0.2727

                     43                     44                     45
                      A                      A                      A
 Frequencies --   1367.0319              1436.6462              1492.1582
 Red. masses --      1.9365                 2.8024                 2.3692
 Frc consts  --      2.1322                 3.4079                 3.1080
 IR Inten    --      0.3904                 8.9172                 2.9155

                     46                     47                     48
                      A                      A                      A
 Frequencies --   1524.5936              1550.3174              1614.4339
 Red. masses --      2.1446                 2.5579                 6.1895
 Frc consts  --      2.9371                 3.6222                 9.5049
 IR Inten    --     78.4247                 3.5745                 0.6931

                     49                     50                     51
                      A                      A                      A
 Frequencies --   1639.9481              1649.6482              1663.1978
 Red. masses --      6.0548                 5.7734                 5.6681
 Frc consts  --      9.5942                 9.2569                 9.2380
 IR Inten    --      1.5837                 6.2685                 4.5566

                     52                     53                     54
                      A                      A                      A
 Frequencies --   3180.5176              3186.4144              3195.0169
 Red. masses --      1.0847                 1.0874                 1.0904
 Frc consts  --      6.4649                 6.5048                 6.5581
 IR Inten    --      4.8449                 1.7415                21.1686

                     55                     56                     57
                      A                      A                      A
 Frequencies --   3198.1077              3199.8899              3203.0891
 Red. masses --      1.0901                 1.0892                 1.0929
 Frc consts  --      6.5688                 6.5707                 6.6065
 IR Inten    --      3.6471                 0.0362                30.2235

                     58                     59                     60
                      A                      A                      A
 Frequencies --   3210.8119              3221.2615              3222.7210
 Red. masses --      1.0985                 1.0940                 1.0949
 Frc consts  --      6.6725                 6.6882                 6.6998
 IR Inten    --     19.2512                 6.4864                 0.1752

 - Thermochemistry -
 -------------------
 Temperature   298.150 Kelvin.  Pressure   1.00000 Atm.
 Atom     1 has atomic number 35 and mass  78.91834

 Molecular mass:   231.98876 amu.
 Principal axes and moments of inertia in atomic units:
                           1         2         3
     Eigenvalues --   632.062988795.106719296.45805
           X            1.00000  -0.00000   0.00000
           Y            0.00000   1.00000   0.00013
           Z           -0.00000  -0.00013   1.00000
 This molecule is an asymmetric top.
 Rotational symmetry number  1.
 Warning -- assumption of classical behavior for rotation
           may cause significant error
 Rotational temperatures (Kelvin)      0.13703     0.00985     0.00932
 Rotational constants (GHZ):           2.85532     0.20520     0.19413
 Zero-point vibrational energy     451296.4 (Joules/Mol)
                                  107.86243 (Kcal/Mol)
 Warning -- explicit consideration of  13 degrees of freedom as
           vibrations may cause significant error
 Vibrational temperatures:     75.77   102.71   133.90   246.54   310.27
          (Kelvin)            344.38   466.73   583.02   598.17   602.41
                              616.10   730.77   802.34   910.74   936.29
                              944.71  1027.72  1056.81  1108.54  1118.59
                             1221.76  1227.02  1238.23  1340.55  1402.62
                             1408.86  1410.16  1437.95  1464.61  1472.09
                             1498.38  1539.00  1580.54  1601.52  1638.53
                             1711.35  1738.66  1751.07  1888.69  1896.18
                             1917.78  1938.82  1966.85  2067.01  2146.88
                             2193.55  2230.56  2322.81  2359.52  2373.48
                             2392.97  4576.06  4584.54  4596.92  4601.36
                             4603.93  4608.53  4619.64  4634.68  4636.78

 Zero-point correction=                           0.171890 (Hartree/Particle)
 Thermal correction to Energy=                    0.182214
 Thermal correction to Enthalpy=                  0.183158
 Thermal correction to Gibbs Free Energy=         0.134108
 Sum of electronic and zero-point Energies=          -3034.303262
 Sum of electronic and thermal Energies=             -3034.292938
 Sum of electronic and thermal Enthalpies=           -3034.291994
 Sum of electronic and thermal Free Energies=        -3034.341044

                     E (Thermal)             CV                S
                      KCal/Mol        Cal/Mol-Kelvin    Cal/Mol-Kelvin
 Total                  114.341             40.446            103.234
 Electronic               0.000              0.000              0.000
 Translational            0.889              2.981             42.226
 Rotational               0.889              2.981             32.313
 Vibrational            112.563             34.485             28.694
 Vibration     1          0.596              1.977              4.715
 Vibration     2          0.598              1.968              4.115
 Vibration     3          0.602              1.954              3.595
 Vibration     4          0.626              1.878              2.421
 Vibration     5          0.645              1.817              1.995
 Vibration     6          0.657              1.780              1.808
 Vibration     7          0.709              1.627              1.288
 Vibration     8          0.770              1.459              0.944
 Vibration     9          0.779              1.436              0.907
 Vibration    10          0.782              1.430              0.896
 Vibration    11          0.790              1.409              0.865
 Vibration    12          0.863              1.232              0.639
 Vibration    13          0.913              1.123              0.529

 Optimization completed.
    -- Stationary point found.
 Normal termination of Gaussian 16 at Tue Sep 17 09:45:56 2024.

 ----------------------------------------------------------------------
 #p M062X/def2tzvp geom=check guess=read scf(xqc,tight) integral(grid=u
 ltrafine) scrf(SMD, solvent=1,4-Dioxane) polar prop=efg volume
 ----------------------------------------------------------------------

 ---
 spe
 ---
 Structure from the checkpoint file:  "smiles_00070_conf_0.chk"
 Charge =  0 Multiplicity = 1

 SCF Done:  E(RM062X) =  -3036.87509190     A.U. after   11 cycles

  Exact polarizability:     292.608      -0.000     171.810       0.000       0.268     103.213
 Approx polarizability:     275.191      -0.000     209.938       0.000      -0.391     129.635

 1\1\GINC-HPC-21-22\SP\RM062X\def2TZVP\C12H9Br1\MANTIND\17-Sep-2024\0\\
 #p M062X/def2tzvp geom=check guess=read scf(xqc,tight) integral(grid=u
 ltrafine) scrf(SMD, solvent=1,4-Dioxane) polar prop=efg volume\\spe\\0
 ,1\Br,0,3.6138293641,-0.0009297467,0.0025225454\C,0,1.7034842613,-0.00
 06097912,0.0017043953\C,0,1.0182796068,1.1487273373,0.3873300965\C,0,-
 0.3739086852,1.1404833284,0.3846844223\C,0,-1.0961207472,-0.0001489369
 ,0.0005237485\C,0,-2.5772915413,0.0000936445,-0.0000815179\C,0,-3.2961
 439408,1.1417854314,-0.3877758142\C,0,-4.6890478892,1.1424018041,-0.38

 Normal termination of Gaussian 16 at Tue Sep 17 10:44:06 2024.
 Gaussian 16:  ES64L-G16RevC.02  7-Dec-2021

 ----------------------------------------------------------------------
 #p M062X/def2tzvp geom=check guess=read scf(xqc,tight) integral(grid=u
 ltrafine) scrf(SMD, solvent=1,4-Dioxane) nmr=giao
 ----------------------------------------------------------------------

 ---
 spe
 ---
 Structure from the checkpoint file:  "smiles_00070_conf_0.chk"
 Charge =  0 Multiplicity = 1

                         Standard orientation:
 ---------------------------------------------------------------------
 Center     Atomic      Atomic             Coordinates (Angstroms)
 Number     Number       Type             X           Y           Z
 ---------------------------------------------------------------------
      1         35           0       -3.845873    0.000001    0.000016
      2          6           0       -1.935528   -0.000003   -0.000009
      3          6           0       -1.250294   -1.148910    0.386844
      4          6           0        0.141894   -1.140438    0.384770
      5          6           0        0.864078   -0.000002   -0.000027
      6          6           0        2.345248   -0.000000   -0.000017
      7          6           0        3.064450   -1.141891   -0.386476
      8          6           0        4.457354   -1.142277   -0.385585
      9          6           0        5.159879    0.000005    0.000033
     10          6           0        4.457337    1.142285    0.385623
     11          6           0        3.064432    1.141894    0.386463
     12          6           0        0.141888    1.140430   -0.384825
     13          6           0       -1.250299    1.148901   -0.386880
     14          1           0       -1.798158   -2.031875    0.694223
     15          1           0        0.676447   -2.026003    0.712535
     16          1           0        2.525577   -2.024793   -0.715473
     17          1           0        4.994938   -2.033141   -0.695844
     18          1           0        6.245393    0.000005    0.000056
     19          1           0        4.994905    2.033153    0.695898
     20          1           0        2.525544    2.024797    0.715434
     21          1           0        0.676436    2.025990   -0.712612
     22          1           0       -1.798168    2.031862   -0.694260
 ---------------------------------------------------------------------

 SCF Done:  E(RM062X) =  -3036.87509190     A.U. after    1 cycles

      1  Br   Isotropic =  2094.5056   Anisotropy =  1273.3880

      2  C    Isotropic =    25.2388   Anisotropy =   140.1458

      3  C    Isotropic =    31.0790   Anisotropy =   184.7631

      4  C    Isotropic =    34.2858   Anisotropy =   197.7261

      5  C    Isotropic =    19.3652   Anisotropy =   225.2315

      6  C    Isotropic =    20.3222   Anisotropy =   223.0785

      7  C    Isotropic =    35.7625   Anisotropy =   203.0431

      8  C    Isotropic =    34.2617   Anisotropy =   218.0543

      9  C    Isotropic =    35.1665   Anisotropy =   218.6603

     10  C    Isotropic =    34.2617   Anisotropy =   218.0542

     11  C    Isotropic =    35.7618   Anisotropy =   203.0431

     12  C    Isotropic =    34.2863   Anisotropy =   197.7260

     13  C    Isotropic =    31.0789   Anisotropy =   184.7631

     14  H    Isotropic =    23.5329   Anisotropy =    10.5241

     15  H    Isotropic =    23.3935   Anisotropy =     9.4734

     16  H    Isotropic =    23.2951   Anisotropy =     9.9552

     17  H    Isotropic =    23.4939   Anisotropy =     6.4407

     18  H    Isotropic =    23.6354   Anisotropy =     5.7831

     19  H    Isotropic =    23.4939   Anisotropy =     6.4407

     20  H    Isotropic =    23.2951   Anisotropy =     9.9554

     21  H    Isotropic =    23.3935   Anisotropy =     9.4732

     22  H    Isotropic =    23.5329   Anisotropy =    10.5241

 The electronic state is 1-A.
 Alpha  occ. eigenvalues -- -485.37523 -63.36003 -57.17946 -57.17712 -57.17706
 Alpha  occ. eigenvalues --  -10.60365 -10.56277 -10.55834 -10.55721 -10.55719
 Alpha  occ. eigenvalues --  -10.55416 -10.55412 -10.54621 -10.54620 -10.54543
 Alpha  occ. eigenvalues --  -10.54516 -10.54427  -9.02647  -6.85050  -6.84183
 Alpha  occ. eigenvalues --   -6.84162  -2.88427  -2.88113  -2.88088  -2.87280
 Alpha  occ. eigenvalues --   -2.87280  -0.98775  -0.96246  -0.90742  -0.85802
 Alpha  occ. eigenvalues --   -0.85785  -0.84426  -0.80216  -0.71355  -0.70474
 Alpha  occ. eigenvalues --   -0.68107  -0.66082  -0.61067  -0.56568  -0.54618
 Alpha  occ. eigenvalues --   -0.54071  -0.51636  -0.51200  -0.50090  -0.48805
 Alpha  occ. eigenvalues --   -0.48230  -0.46534  -0.44293  -0.42633  -0.42224
 Alpha  occ. eigenvalues --   -0.39963  -0.39939  -0.38136  -0.35166  -0.32675
 Alpha  occ. eigenvalues --   -0.32169  -0.31254  -0.27826
 Alpha virt. eigenvalues --   -0.01485   0.00667   0.01679   0.03800   0.04493
 Alpha virt. eigenvalues --    0.08788   0.10084   0.10174   0.11737   0.12124
 Alpha virt. eigenvalues --    0.13780   0.14118   0.14595   0.15254   0.15933

 Mulliken charges:
               1
     1  Br  -0.116446
     2  C    0.042495
     3  C   -0.173199
     4  C   -0.214545
     5  C    0.101271
     6  C    0.112636
     7  C   -0.225290
     8  C   -0.165920
     9  C   -0.167259
    10  C   -0.165920
    11  C   -0.225289
    12  C   -0.214548
    13  C   -0.173199
    14  H    0.180965
    15  H    0.186906
    16  H    0.181225
    17  H    0.162281
    18  H    0.162460
    19  H    0.162281
    20  H    0.181224
    21  H    0.186908
    22  H    0.180965
 Sum of Mulliken charges =  -0.00000

 Dipole moment (field-independent basis, Debye):
    X=              2.4213    Y=             -0.0000    Z=             -0.0000  Tot=              2.4213
 Quadrupole moment (field-independent basis, Debye-Ang):
   XX=            -85.5276   YY=            -78.8150   ZZ=            -93.3292
   XY=             -0.0001   XZ=              0.0002   YZ=             -0.2731

 1\1\GINC-HPC-21-22\SP\RM062X\def2TZVP\C12H9Br1\MANTIND\17-Sep-2024\0\\
 #p M062X/def2tzvp geom=check guess=read scf(xqc,tight) integral(grid=u
 ltrafine) scrf(SMD, solvent=1,4-Dioxane) nmr=giao\\spe\\0,1\Br,0,3.613
 8293641,-0.0009297467,0.0025225454\C,0,1.7034842613,-0.0006097912,0.00
 17043953\C,0,1.0182796068,1.1487273373,0.3873300965\C,0,-0.3739086852,
 1.1404833284,0.3846844223\C,0,-1.0961207472,-0.0001489369,0.0005237485
 \C,0,-2.5772915413,0.0000936445,-0.0000815179\C,0,-3.2961439408,1.1417
 854314,-0.3877758142\C,0,-4.6890478892,1.1424018041,-0.3874636133\C,0,

 Normal termination of Gaussian 16 at Tue Sep 17 11:05:10 2024.
