 Gaussian 16, Revision C.02,

 ----------------------------------------------------------------------
 #p B3LYP/6-31G(d,p) EmpiricalDispersion=GD3BJ opt freq scf(xqc,tight)
 integral(grid=ultrafine)
 ----------------------------------------------------------------------

 ----------------------------------
 opt-freq conformers_unique/conf_ad
 ----------------------------------
 Symbolic Z-matrix:
 Charge =  0 Multiplicity = 1

 SCF Done:  E(RB3LYP) =  -3117.96628626     A.U. after   14 cycles
 SCF Done:  E(RB3LYP) =  -3117.96827677     A.U. after   10 cycles
 SCF Done:  E(RB3LYP) =  -3117.96839172     A.U. after    9 cycles
 SCF Done:  E(RB3LYP) =  -3117.96848046     A.U. after   10 cycles
 SCF Done:  E(RB3LYP) =  -3117.96750302     A.U. after   13 cycles
 SCF Done:  E(RB3LYP) =  -3117.96860273     A.U. after   11 cycles
 SCF Done:  E(RB3LYP) =  -3117.96872699     A.U. after   11 cycles
 SCF Done:  E(RB3LYP) =  -3117.96888859     A.U. after    9 cycles
 SCF Done:  E(RB3LYP) =  -3117.96925019     A.U. after   10 cycles
 SCF Done:  E(RB3LYP) =  -3117.96928458     A.U. after    9 cycles
 SCF Done:  E(RB3LYP) =  -3117.96929149     A.U. after    9 cycles
 SCF Done:  E(RB3LYP) =  -3117.96929298     A.U. after    7 cycles
 SCF Done:  E(RB3LYP) =  -3117.96929310     A.U. after    6 cycles
 SCF Done:  E(RB3LYP) =  -3117.96929312     A.U. after    6 cycles
 Optimization completed.
    -- Stationary point found.
 Normal termination of Gaussian 16 at Tue Sep 17 09:52:15 2024.

 ----------------------------------------------------------------------
 #P Geom=AllCheck Guess=TCheck SCRF=Check GenChk RB3LYP/6-31G(d,p) Freq
 ----------------------------------------------------------------------

 Structure from the checkpoint file:  "smiles_00109_conf_3.chk"
 ----------------------------------
 opt-freq conformers_unique/conf_ad
 ----------------------------------
 Charge =  0 Multiplicity = 1

 SCF Done:  E(RB3LYP) =  -3117.96929312     A.U. after    1 cycles

                      1                      2                      3
                      A                      A                      A
 Frequencies --     35.3161                36.9573                82.2137
 Red. masses --      2.8237                 2.8544                 3.7567
 Frc consts  --      0.0021                 0.0023                 0.0150
 IR Inten    --      0.0264                 0.0051                 0.1483

                      4                      5                      6
                      A                      A                      A
 Frequencies --    125.6439               128.8111               139.1501
 Red. masses --      5.6998                 3.9483                 3.0250
 Frc consts  --      0.0530                 0.0386                 0.0345
 IR Inten    --      0.0746                 0.1962                 0.0038

                      7                      8                      9
                      A                      A                      A
 Frequencies --    187.9694               233.4385               234.5770
 Red. masses --      4.1017                 1.0761                 1.0612
 Frc consts  --      0.0854                 0.0345                 0.0344
 IR Inten    --      0.0034                 0.0004                 0.0106

                     10                     11                     12
                      A                      A                      A
 Frequencies --    245.3719               265.3547               266.9489
 Red. masses --      4.3478                 1.3104                 1.3481
 Frc consts  --      0.1542                 0.0544                 0.0566
 IR Inten    --      0.9095                 0.0133                 0.1871

                     13                     14                     15
                      A                      A                      A
 Frequencies --    284.9298               296.3168               316.9767
 Red. masses --      1.7169                 1.9009                 2.1739
 Frc consts  --      0.0821                 0.0983                 0.1287
 IR Inten    --      0.3357                 0.2069                 0.0007

                     16                     17                     18
                      A                      A                      A
 Frequencies --    328.5699               339.1208               343.3472
 Red. masses --      1.4022                 1.1838                 1.5137
 Frc consts  --      0.0892                 0.0802                 0.1051
 IR Inten    --      0.3464                 0.0583                 0.3479

                     19                     20                     21
                      A                      A                      A
 Frequencies --    362.2676               372.3438               386.8648
 Red. masses --      3.1420                 2.5942                 3.1069
 Frc consts  --      0.2429                 0.2119                 0.2740
 IR Inten    --      0.4623                 0.0433                 0.0690

                     22                     23                     24
                      A                      A                      A
 Frequencies --    391.4254               405.8411               464.0692
 Red. masses --      2.3398                 2.5796                 3.0430
 Frc consts  --      0.2112                 0.2503                 0.3861
 IR Inten    --      0.0000                 0.6367                 0.1506

                     25                     26                     27
                      A                      A                      A
 Frequencies --    523.7589               540.3661               552.6822
 Red. masses --      3.1635                 3.2274                 2.7060
 Frc consts  --      0.5113                 0.5552                 0.4870
 IR Inten    --      0.0585                 0.6463                 1.8790

                     28                     29                     30
                      A                      A                      A
 Frequencies --    576.1723               654.1753               729.3103
 Red. masses --      5.0138                 4.2938                 2.1704
 Frc consts  --      0.9807                 1.0826                 0.6802
 IR Inten    --      0.0094                 0.0282                 9.4650

                     31                     32                     33
                      A                      A                      A
 Frequencies --    761.0642               773.4674               851.4581
 Red. masses --      6.6015                 4.3295                 2.7689
 Frc consts  --      2.2529                 1.5260                 1.1827
 IR Inten    --     35.0546                 0.1203                24.8822

                     34                     35                     36
                      A                      A                      A
 Frequencies --    898.0253               913.3092               913.7624
 Red. masses --      1.6746                 1.4250                 2.6485
 Frc consts  --      0.7957                 0.7003                 1.3029
 IR Inten    --     18.1694                 0.0255                11.6574

                     37                     38                     39
                      A                      A                      A
 Frequencies --    921.5458               938.4129               939.1832
 Red. masses --      1.3935                 1.7044                 1.6696
 Frc consts  --      0.6973                 0.8843                 0.8677
 IR Inten    --      0.0010                 0.0003                 3.2691

                     40                     41                     42
                      A                      A                      A
 Frequencies --    948.7825               949.8114               967.8879
 Red. masses --      1.6724                 1.6804                 1.1978
 Frc consts  --      0.8870                 0.8932                 0.6611
 IR Inten    --      1.0825                 3.1457                 0.0710

                     43                     44                     45
                      A                      A                      A
 Frequencies --    968.2484              1018.6861              1049.4103
 Red. masses --      1.1977                 5.6126                 1.4214
 Frc consts  --      0.6616                 3.4316                 0.9223
 IR Inten    --      0.2413                 3.4988                 1.0412

                     46                     47                     48
                      A                      A                      A
 Frequencies --   1053.3273              1056.0002              1057.2827
 Red. masses --      1.4085                 1.3987                 1.3943
 Frc consts  --      0.9207                 0.9190                 0.9183
 IR Inten    --      0.1430                 0.0027                 0.0004

                     49                     50                     51
                      A                      A                      A
 Frequencies --   1147.5968              1167.1307              1171.6954
 Red. masses --      2.0331                 1.9087                 1.8242
 Frc consts  --      1.5776                 1.5319                 1.4755
 IR Inten    --      5.8220                 1.2599                 0.0374

                     52                     53                     54
                      A                      A                      A
 Frequencies --   1236.6564              1237.5424              1242.6235
 Red. masses --      2.7254                 2.7446                 2.5146
 Frc consts  --      2.4557                 2.4766                 2.2877
 IR Inten    --      5.7276                 0.4033                 1.8664

                     55                     56                     57
                      A                      A                      A
 Frequencies --   1243.1184              1281.1203              1309.9824
 Red. masses --      2.5585                 2.4454                 2.9391
 Frc consts  --      2.3295                 2.3648                 2.9717
 IR Inten    --      1.1753                48.6954                22.3648

                     58                     59                     60
                      A                      A                      A
 Frequencies --   1319.8428              1358.9383              1410.9574
 Red. masses --      1.7747                 3.2333                 1.2540
 Frc consts  --      1.8215                 3.5180                 1.4709
 IR Inten    --     14.9612                 2.9176                 6.3647

                     61                     62                     63
                      A                      A                      A
 Frequencies --   1412.5323              1413.6697              1413.9413
 Red. masses --      1.2159                 1.2153                 1.2465
 Frc consts  --      1.4294                 1.4309                 1.4682
 IR Inten    --      3.2887                 5.3233                 2.6839

                     64                     65                     66
                      A                      A                      A
 Frequencies --   1444.7028              1445.3294              1463.8892
 Red. masses --      1.2205                 1.2205                 2.8803
 Frc consts  --      1.5008                 1.5022                 3.6367
 IR Inten    --      3.9574                 0.4116                27.6634

                     67                     68                     69
                      A                      A                      A
 Frequencies --   1484.5073              1496.0783              1496.7111
 Red. masses --      2.3608                 1.0489                 1.0489
 Frc consts  --      3.0653                 1.3832                 1.3844
 IR Inten    --     10.0936                 0.0036                 0.0218

                     70                     71                     72
                      A                      A                      A
 Frequencies --   1500.3166              1500.6047              1505.3693
 Red. masses --      1.0446                 1.0448                 1.0610
 Frc consts  --      1.3854                 1.3862                 1.4166
 IR Inten    --      0.0002                 0.0933                 1.2406

                     73                     74                     75
                      A                      A                      A
 Frequencies --   1506.8582              1519.2551              1520.3698
 Red. masses --      1.1134                 1.0613                 1.0971
 Frc consts  --      1.4895                 1.4433                 1.4941
 IR Inten    --      2.6886                 2.3131                 5.8294

                     76                     77                     78
                      A                      A                      A
 Frequencies --   1521.9760              1522.7329              1536.0472
 Red. masses --      1.0505                 1.0506                 1.0700
 Frc consts  --      1.4337                 1.4352                 1.4874
 IR Inten    --      9.6265                 0.3181                14.3087

                     79                     80                     81
                      A                      A                      A
 Frequencies --   1536.3291              1620.4246              1653.4657
 Red. masses --      1.0695                 5.7404                 5.9385
 Frc consts  --      1.4872                 8.8807                 9.5657
 IR Inten    --      3.2877                79.5410                40.7245

                     82                     83                     84
                      A                      A                      A
 Frequencies --   3041.1564              3041.4661              3041.6688
 Red. masses --      1.0348                 1.0350                 1.0348
 Frc consts  --      5.6390                 5.6412                 5.6409
 IR Inten    --     23.6990                19.6738                22.5246

                     85                     86                     87
                      A                      A                      A
 Frequencies --   3041.7732              3048.7449              3048.9619
 Red. masses --      1.0352                 1.0363                 1.0363
 Frc consts  --      5.6430                 5.6754                 5.6757
 IR Inten    --     31.1654                32.2942                13.8699

                     88                     89                     90
                      A                      A                      A
 Frequencies --   3112.3731              3112.5073              3112.9711
 Red. masses --      1.1023                 1.1024                 1.1025
 Frc consts  --      6.2914                 6.2925                 6.2950
 IR Inten    --      0.8743                 4.4452                 2.1337

                     91                     92                     93
                      A                      A                      A
 Frequencies --   3113.2134              3117.1484              3118.4707
 Red. masses --      1.1025                 1.1028                 1.1030
 Frc consts  --      6.2958                 6.3133                 6.3199
 IR Inten    --      5.9621                23.9331                21.6300

                     94                     95                     96
                      A                      A                      A
 Frequencies --   3120.2992              3120.7867              3124.4733
 Red. masses --      1.1017                 1.1015                 1.1024
 Frc consts  --      6.3196                 6.3209                 6.3407
 IR Inten    --    132.6379                49.9559                18.3798

                     97                     98                     99
                      A                      A                      A
 Frequencies --   3125.2335              3126.7134              3127.8806
 Red. masses --      1.1023                 1.1017                 1.1016
 Frc consts  --      6.3436                 6.3460                 6.3498
 IR Inten    --     15.8568                37.7536                44.5056

                    100                    101                    102
                      A                      A                      A
 Frequencies --   3220.1243              3229.7869              3245.2310
 Red. masses --      1.0905                 1.0879                 1.0903
 Frc consts  --      6.6625                 6.6866                 6.7656
 IR Inten    --      2.5870                 7.3455                 0.3697

 - Thermochemistry -
 -------------------
 Temperature   298.150 Kelvin.  Pressure   1.00000 Atm.
 Atom     1 has atomic number  6 and mass  12.00000

 Molecular mass:   268.08266 amu.
 Principal axes and moments of inertia in atomic units:
                           1         2         3
     Eigenvalues --  4344.504785142.447978688.70584
           X            0.97874   0.20509   0.00000
           Y           -0.20509   0.97874   0.00000
           Z           -0.00000  -0.00000   1.00000
 This molecule is an asymmetric top.
 Rotational symmetry number  1.
 Warning -- assumption of classical behavior for rotation
           may cause significant error
 Rotational temperatures (Kelvin)      0.01994     0.01684     0.00997
 Rotational constants (GHZ):           0.41541     0.35095     0.20771
 Zero-point vibrational energy     830586.7 (Joules/Mol)
                                  198.51499 (Kcal/Mol)
 Warning -- explicit consideration of  28 degrees of freedom as
           vibrations may cause significant error
 Vibrational temperatures:     50.81    53.17   118.29   180.77   185.33
          (Kelvin)            200.21   270.45   335.87   337.50   353.04
                              381.79   384.08   409.95   426.33   456.06
                              472.74   487.92   494.00   521.22   535.72
                              556.61   563.17   583.91   667.69   753.57
                              777.47   795.19   828.98   941.21  1049.31
                             1095.00  1112.85  1225.06  1292.06  1314.05
                             1314.70  1325.90  1350.17  1351.28  1365.09
                             1366.57  1392.57  1393.09  1465.66  1509.87
                             1515.50  1519.35  1521.19  1651.14  1679.24
                             1685.81  1779.27  1780.55  1787.86  1788.57
                             1843.25  1884.77  1898.96  1955.21  2030.05
                             2032.32  2033.96  2034.35  2078.61  2079.51
                             2106.21  2135.87  2152.52  2153.43  2158.62
                             2159.04  2165.89  2168.03  2185.87  2187.47
                             2189.78  2190.87  2210.03  2210.43  2331.43
                             2378.97  4375.55  4375.99  4376.28  4376.43
                             4386.46  4386.78  4478.01  4478.20  4478.87
                             4479.22  4484.88  4486.78  4489.41  4490.12
                             4495.42  4496.51  4498.64  4500.32  4633.04
                             4646.94  4669.16

 Zero-point correction=                           0.316354 (Hartree/Particle)
 Thermal correction to Energy=                    0.333144
 Thermal correction to Enthalpy=                  0.334088
 Thermal correction to Gibbs Free Energy=         0.272152
 Sum of electronic and zero-point Energies=          -3117.652939
 Sum of electronic and thermal Energies=             -3117.636149
 Sum of electronic and thermal Enthalpies=           -3117.635205
 Sum of electronic and thermal Free Energies=        -3117.697141

                     E (Thermal)             CV                S
                      KCal/Mol        Cal/Mol-Kelvin    Cal/Mol-Kelvin
 Total                  209.051             65.118            130.355
 Electronic               0.000              0.000              0.000
 Translational            0.889              2.981             42.657
 Rotational               0.889              2.981             33.628
 Vibrational            207.273             59.156             54.069
 Vibration     1          0.594              1.982              5.506
 Vibration     2          0.594              1.982              5.416
 Vibration     3          0.600              1.961              3.837
 Vibration     4          0.611              1.927              3.012
 Vibration     5          0.611              1.924              2.964
 Vibration     6          0.615              1.914              2.816
 Vibration     7          0.633              1.856              2.248
 Vibration     8          0.654              1.790              1.852
 Vibration     9          0.654              1.788              1.844
 Vibration    10          0.660              1.770              1.764
 Vibration    11          0.671              1.737              1.626
 Vibration    12          0.672              1.734              1.616
 Vibration    13          0.683              1.702              1.504
 Vibration    14          0.690              1.681              1.438
 Vibration    15          0.704              1.641              1.326
 Vibration    16          0.712              1.618              1.267
 Vibration    17          0.719              1.597              1.216
 Vibration    18          0.722              1.589              1.197
 Vibration    19          0.736              1.550              1.112
 Vibration    20          0.744              1.529              1.070
 Vibration    21          0.755              1.498              1.012
 Vibration    22          0.759              1.489              0.995
 Vibration    23          0.771              1.458              0.941
 Vibration    24          0.822              1.330              0.754
 Vibration    25          0.879              1.197              0.601
 Vibration    26          0.895              1.161              0.564
 Vibration    27          0.908              1.134              0.539
 Vibration    28          0.933              1.083              0.493

 Optimization completed.
    -- Stationary point found.
 Normal termination of Gaussian 16 at Tue Sep 17 09:57:02 2024.

 ----------------------------------------------------------------------
 #p M062X/def2tzvp geom=check guess=read scf(xqc,tight) integral(grid=u
 ltrafine) scrf(SMD, solvent=1,4-Dioxane) polar prop=efg volume
 ----------------------------------------------------------------------

 ---
 spe
 ---
 Structure from the checkpoint file:  "smiles_00109_conf_3.chk"
 Charge =  0 Multiplicity = 1

 SCF Done:  E(RM062X) =  -3120.29715582     A.U. after   11 cycles

 The electronic state is 1-A.
 Alpha  occ. eigenvalues -- -485.36998 -63.35473 -57.17415 -57.17184 -57.17179
 Alpha  occ. eigenvalues --  -10.59710 -10.55552 -10.55534 -10.55420 -10.55389
 Alpha  occ. eigenvalues --  -10.54523 -10.54468 -10.53807 -10.52212 -10.52208
 Alpha  occ. eigenvalues --  -10.52207 -10.52170 -10.52169 -10.52102  -9.02110
 Alpha  occ. eigenvalues --   -6.84505  -6.83648  -6.83631  -2.87881  -2.87570
 Alpha  occ. eigenvalues --   -2.87549  -2.86751  -2.86751  -0.98165  -0.93018
 Alpha  occ. eigenvalues --   -0.92018  -0.87449  -0.83149  -0.81167  -0.77520
 Alpha  occ. eigenvalues --   -0.77464  -0.77428  -0.77245  -0.70644  -0.68473
 Alpha  occ. eigenvalues --   -0.62771  -0.59955  -0.58869  -0.54503  -0.52726
 Alpha  occ. eigenvalues --   -0.52543  -0.50930  -0.50538  -0.49723  -0.48672
 Alpha  occ. eigenvalues --   -0.47448  -0.46832  -0.45463  -0.45028  -0.43973
 Alpha  occ. eigenvalues --   -0.43721  -0.43641  -0.43277  -0.42575  -0.42536
 Alpha  occ. eigenvalues --   -0.39785  -0.39218  -0.39177  -0.38700  -0.36957
 Alpha  occ. eigenvalues --   -0.36835  -0.36191  -0.34548  -0.29919  -0.28979
 Alpha virt. eigenvalues --    0.01378   0.01872   0.04072   0.05841   0.07618
 Alpha virt. eigenvalues --    0.09857   0.10630   0.10739   0.11115   0.11597
 Alpha virt. eigenvalues --    0.12590   0.12620   0.13375   0.13971   0.14453

 Mulliken charges:
               1
     1  C   -0.439898
     2  C   -0.061654
     3  C   -0.439892
     4  C   -0.536684
     5  C    0.112577
     6  C   -0.279138
     7  C    0.051034
     8  Br  -0.125730
     9  C   -0.202837
    10  C    0.147014
    11  C   -0.057920
    12  C   -0.439700
    13  C   -0.439724
    14  C   -0.534757
    15  C   -0.279601
    16  H    0.156686
    17  H    0.162966
    18  H    0.156247
    19  H    0.156686
    20  H    0.156244
    21  H    0.162964
    22  H    0.171656
    23  H    0.171647
    24  H    0.166620
    25  H    0.193535
    26  H    0.196255
    27  H    0.157041
    28  H    0.164418
    29  H    0.150331
    30  H    0.164421
    31  H    0.150324
    32  H    0.157047
    33  H    0.164818
    34  H    0.173895
    35  H    0.173920
    36  H    0.219188
 Sum of Mulliken charges =  -0.00000

 Dipole moment (field-independent basis, Debye):
    X=             -2.8021    Y=              0.7423    Z=             -0.0000  Tot=              2.8988
 Quadrupole moment (field-independent basis, Debye-Ang):
   XX=           -108.4795   YY=            -99.2872   ZZ=           -110.4266
   XY=              2.4998   XZ=              0.0000   YZ=             -0.0001

  Exact polarizability:     247.558      -0.912     240.430      -0.000      -0.002     157.824
 Approx polarizability:     259.424      -3.462     242.575      -0.001      -0.002     182.381

 Normal termination of Gaussian 16 at Tue Sep 17 11:49:20 2024.
 Gaussian 16:  ES64L-G16RevC.02  7-Dec-2021

 ----------------------------------------------------------------------
 #p M062X/def2tzvp geom=check guess=read scf(xqc,tight) integral(grid=u
 ltrafine) scrf(SMD, solvent=1,4-Dioxane) nmr=giao
 ----------------------------------------------------------------------

 ---
 spe
 ---
 Structure from the checkpoint file:  "smiles_00109_conf_3.chk"
 Charge =  0 Multiplicity = 1

                         Standard orientation:
 ---------------------------------------------------------------------
 Center     Atomic      Atomic             Coordinates (Angstroms)
 Number     Number       Type             X           Y           Z
 ---------------------------------------------------------------------
      1          6           0       -0.223582    3.511631    1.260750
      2          6           0       -0.801835    2.833598   -0.000006
      3          6           0       -0.223513    3.511845   -1.260595
      4          6           0       -2.325791    3.034428   -0.000046
      5          6           0       -0.410044    1.348932   -0.000032
      6          6           0        0.950723    1.001050   -0.000054
      7          6           0        1.312387   -0.335875    0.000016
      8         35           0        3.173395   -0.796278   -0.000004
      9          6           0        0.369084   -1.361772    0.000087
     10          6           0       -0.988851   -1.039523    0.000097
     11          6           0       -2.086144   -2.113452    0.000003
     12          6           0       -2.961009   -1.946035   -1.261211
     13          6           0       -2.961860   -1.945668    1.260560
     14          6           0       -1.507579   -3.537430    0.000454
     15          6           0       -1.350873    0.318346    0.000031
     16          1           0       -0.490143    4.573816    1.276815
     17          1           0       -0.618836    3.045372    2.168507
     18          1           0        0.866867    3.439966    1.295410
     19          1           0       -0.490208    4.573994   -1.276504
     20          1           0        0.866944    3.440308   -1.295150
     21          1           0       -0.618633    3.045674   -2.168456
     22          1           0       -2.792670    2.595787    0.887361
     23          1           0       -2.792645    2.595598   -0.887378
     24          1           0       -2.554431    4.104383   -0.000145
     25          1           0        1.721860    1.761334   -0.000117
     26          1           0        0.707892   -2.388186    0.000164
     27          1           0       -3.752043   -2.703392   -1.277657
     28          1           0       -2.359753   -2.059096   -2.168554
     29          1           0       -3.438390   -0.962924   -1.295962
     30          1           0       -2.361232   -2.058439    2.168357
     31          1           0       -3.439363   -0.962599    1.294732
     32          1           0       -3.752859   -2.703067    1.276681
     33          1           0       -2.324132   -4.265652    0.000511
     34          1           0       -0.895048   -3.726246   -0.886605
     35          1           0       -0.895314   -3.725754    0.887802
     36          1           0       -2.403354    0.568406   -0.000010
 ---------------------------------------------------------------------
