 Gaussian 16, Revision C.02,

 ----------------------------------------------------------------------
 #p B3LYP/6-31G(d,p) EmpiricalDispersion=GD3BJ opt freq scf(xqc,tight)
 integral(grid=ultrafine)
 ----------------------------------------------------------------------

 ----------------------------------
 opt-freq conformers_unique/conf_aa
 ----------------------------------
 Symbolic Z-matrix:
 Charge =  0 Multiplicity = 1

 SCF Done:  E(RB3LYP) =  -3277.80231479     A.U. after   15 cycles
 SCF Done:  E(RB3LYP) =  -3277.80356785     A.U. after   12 cycles
 SCF Done:  E(RB3LYP) =  -3277.80360442     A.U. after    9 cycles
 SCF Done:  E(RB3LYP) =  -3277.80360733     A.U. after    8 cycles
 Optimization completed.
    -- Stationary point found.
 Normal termination of Gaussian 16 at Tue Sep 17 09:55:03 2024.

 ----------------------------------------------------------------------
 #P Geom=AllCheck Guess=TCheck SCRF=Check GenChk RB3LYP/6-31G(d,p) Freq
 ----------------------------------------------------------------------

 Structure from the checkpoint file:  "smiles_00035_conf_0.chk"
 ----------------------------------
 opt-freq conformers_unique/conf_aa
 ----------------------------------
 Charge =  0 Multiplicity = 1

 SCF Done:  E(RB3LYP) =  -3277.80360733     A.U. after    1 cycles

                      1                      2                      3
                      A                      A                      A
 Frequencies --     93.4973               185.3447               201.5908
 Red. masses --     10.0163                 8.0268                 4.1376
 Frc consts  --      0.0516                 0.1625                 0.0991
 IR Inten    --      0.0000                 0.2279                 1.6884

                      4                      5                      6
                      A                      A                      A
 Frequencies --    258.7094               288.5963               395.2187
 Red. masses --     25.1686                 7.1405                 4.9150
 Frc consts  --      0.9925                 0.3504                 0.4523
 IR Inten    --      0.3901                 0.1195                 6.5614

                      7                      8                      9
                      A                      A                      A
 Frequencies --    425.4097               481.3558               542.9124
 Red. masses --      3.1725                 3.9845                 7.4419
 Frc consts  --      0.3383                 0.5439                 1.2924
 IR Inten    --      1.8078                 5.4057                 0.2907

                     10                     11                     12
                      A                      A                      A
 Frequencies --    552.2850               602.0117               692.0787
 Red. masses --      8.9540                 3.6366                 7.3414
 Frc consts  --      1.6091                 0.7765                 2.0718
 IR Inten    --      5.7100                 0.0514                 2.7651

                     13                     14                     15
                      A                      A                      A
 Frequencies --    702.7452               739.7526               768.6707
 Red. masses --      1.7114                 7.3635                 2.1830
 Frc consts  --      0.4980                 2.3741                 0.7600
 IR Inten    --     34.1598                 5.5517                13.6819

                     16                     17                     18
                      A                      A                      A
 Frequencies --    818.5201               819.5197               893.7317
 Red. masses --      1.3570                 5.9204                 1.2815
 Frc consts  --      0.5357                 2.3427                 0.6031
 IR Inten    --     19.0611                41.4246                 3.3771

                     19                     20                     21
                      A                      A                      A
 Frequencies --    899.9944               916.6021               962.3772
 Red. masses --      4.1504                 1.4691                 1.3130
 Frc consts  --      1.9807                 0.7272                 0.7165
 IR Inten    --     10.1849                12.0765                 0.0028

                     22                     23                     24
                      A                      A                      A
 Frequencies --   1071.9268              1088.1324              1117.4684
 Red. masses --      3.5793                 2.0340                 1.2599
 Frc consts  --      2.4231                 1.4189                 0.9270
 IR Inten    --     33.7802                24.6739                 7.3336

                     25                     26                     27
                      A                      A                      A
 Frequencies --   1178.9260              1226.9742              1284.4167
 Red. masses --      1.3391                 2.0054                 1.4303
 Frc consts  --      1.0965                 1.7788                 1.3902
 IR Inten    --      4.9016                 8.8795                 5.4231

                     28                     29                     30
                      A                      A                      A
 Frequencies --   1349.8626              1360.6215              1453.3212
 Red. masses --      1.9516                 8.9403                 3.4213
 Frc consts  --      2.0951                 9.7517                 4.2576
 IR Inten    --      0.2374                 0.7719                29.4030

                     31                     32                     33
                      A                      A                      A
 Frequencies --   1476.1865              1557.4533              1605.6813
 Red. masses --      3.0640                 4.6687                 7.1057
 Frc consts  --      3.9339                 6.6723                10.7938
 IR Inten    --     23.8137                 4.3668                 7.7254

                     34                     35                     36
                      A                      A                      A
 Frequencies --   1639.7716              3202.5070              3216.8497
 Red. masses --      6.6408                 1.0896                 1.0918
 Frc consts  --     10.5205                 6.5839                 6.6566
 IR Inten    --     16.3902                 3.5638                 0.6227

                     37                     38                     39
                      A                      A                      A
 Frequencies --   3224.1783              3227.3207              3263.9821
 Red. masses --      1.0908                 1.0943                 1.0982
 Frc consts  --      6.6806                 6.7151                 6.8931
 IR Inten    --      4.0177                 2.1324                 1.1948

 - Thermochemistry -
 -------------------
 Temperature   298.150 Kelvin.  Pressure   1.00000 Atm.
 Atom     1 has atomic number 35 and mass  78.91834

 Molecular mass:   211.92953 amu.
 Principal axes and moments of inertia in atomic units:
                           1         2         3
     Eigenvalues --   616.286224873.033105489.31931
           X            0.99991   0.01313  -0.00005
           Y           -0.01313   0.99991   0.00003
           Z            0.00005  -0.00003   1.00000
 This molecule is an asymmetric top.
 Rotational symmetry number  1.
 Warning -- assumption of classical behavior for rotation
           may cause significant error
 Rotational temperatures (Kelvin)      0.14054     0.01777     0.01578
 Rotational constants (GHZ):           2.92841     0.37035     0.32877
 Zero-point vibrational energy     273864.1 (Joules/Mol)
                                   65.45509 (Kcal/Mol)
 Warning -- explicit consideration of  11 degrees of freedom as
           vibrations may cause significant error
 Vibrational temperatures:    134.52   266.67   290.04   372.23   415.23
          (Kelvin)            568.63   612.07   692.56   781.13   794.61
                              866.16   995.75  1011.09  1064.34  1105.95
                             1177.67  1179.11  1285.88  1294.89  1318.79
                             1384.65  1542.26  1565.58  1607.79  1696.21
                             1765.34  1847.99  1942.15  1957.63  2091.01
                             2123.90  2240.83  2310.22  2359.27  4607.69
                             4628.33  4638.87  4643.39  4696.14

 Zero-point correction=                           0.104309 (Hartree/Particle)
 Thermal correction to Energy=                    0.112243
 Thermal correction to Enthalpy=                  0.113187
 Thermal correction to Gibbs Free Energy=         0.070049
 Sum of electronic and zero-point Energies=          -3277.699298
 Sum of electronic and thermal Energies=             -3277.691365
 Sum of electronic and thermal Enthalpies=           -3277.690421
 Sum of electronic and thermal Free Energies=        -3277.733559

                     E (Thermal)             CV                S
                      KCal/Mol        Cal/Mol-Kelvin    Cal/Mol-Kelvin
 Total                   70.433             30.832             90.792
 Electronic               0.000              0.000              0.000
 Translational            0.889              2.981             41.957
 Rotational               0.889              2.981             31.178
 Vibrational             68.656             24.870             17.657
 Vibration     1          0.603              1.954              3.586
 Vibration     2          0.631              1.860              2.274
 Vibration     3          0.638              1.838              2.119
 Vibration     4          0.668              1.748              1.670
 Vibration     5          0.685              1.695              1.482
 Vibration     6          0.762              1.480              0.980
 Vibration     7          0.787              1.415              0.874
 Vibration     8          0.838              1.291              0.706
 Vibration     9          0.898              1.155              0.559
 Vibration    10          0.908              1.135              0.539
 Vibration    11          0.960              1.028              0.446

 Optimization completed.
    -- Stationary point found.
 Normal termination of Gaussian 16 at Tue Sep 17 09:55:45 2024.

 ----------------------------------------------------------------------
 #p M062X/def2tzvp geom=check guess=read scf(xqc,tight) integral(grid=u
 ltrafine) scrf(SMD, solvent=1,4-Dioxane) polar prop=efg volume
 ----------------------------------------------------------------------

 ---
 spe
 ---
 Structure from the checkpoint file:  "smiles_00035_conf_0.chk"
 Charge =  0 Multiplicity = 1

 SCF Done:  E(RM062X) =  -3280.23824850     A.U. after   12 cycles

  Exact polarizability:     228.640       4.131     148.129       0.007      -0.002      77.830
 Approx polarizability:     240.167      -0.249     183.467       0.006      -0.002     100.562

 Normal termination of Gaussian 16 at Tue Sep 17 10:19:57 2024.
 Gaussian 16:  ES64L-G16RevC.02  7-Dec-2021

 ----------------------------------------------------------------------
 #p M062X/def2tzvp geom=check guess=read scf(xqc,tight) integral(grid=u
 ltrafine) scrf(SMD, solvent=1,4-Dioxane) nmr=giao
 ----------------------------------------------------------------------

 ---
 spe
 ---
 Structure from the checkpoint file:  "smiles_00035_conf_0.chk"
 Charge =  0 Multiplicity = 1

                         Standard orientation:
 ---------------------------------------------------------------------
 Center     Atomic      Atomic             Coordinates (Angstroms)
 Number     Number       Type             X           Y           Z
 ---------------------------------------------------------------------
      1         35           0        2.970309   -0.165920    0.000137
      2          6           0        1.080830    0.130396    0.000060
      3          6           0        0.609524    1.452880    0.000038
      4          6           0       -0.757570    1.696824   -0.000029
      5          6           0       -1.635389    0.609811   -0.000071
      6         16           0       -3.389514    0.657384   -0.000255
      7          6           0       -3.461687   -1.091954   -0.000022
      8          6           0       -2.238094   -1.680471   -0.000076
      9          6           0       -1.160065   -0.725867   -0.000041
     10          6           0        0.226212   -0.958512    0.000023
     11          1           0        1.315344    2.274469    0.000054
     12          1           0       -1.129725    2.715876   -0.000073
     13          1           0       -4.427550   -1.577846    0.000025
     14          1           0       -2.087899   -2.753389   -0.000047
     15          1           0        0.618686   -1.968701    0.000048
 ---------------------------------------------------------------------

 SCF Done:  E(RM062X) =  -3280.23824850     A.U. after    1 cycles

      1  Br   Isotropic =  2096.6879   Anisotropy =  1293.4743

      2  C    Isotropic =    29.5629   Anisotropy =   136.9890

      3  C    Isotropic =    36.8043   Anisotropy =   176.1994

      4  C    Isotropic =    40.2004   Anisotropy =   197.7529

      5  C    Isotropic =    17.2402   Anisotropy =   188.3158

      6  S    Isotropic =   253.5315   Anisotropy =   124.5410

      7  C    Isotropic =    28.2530   Anisotropy =   166.0697

      8  C    Isotropic =    42.7145   Anisotropy =   149.8819

      9  C    Isotropic =    22.0177   Anisotropy =   190.7203

     10  C    Isotropic =    37.2431   Anisotropy =   168.4608

     11  H    Isotropic =    23.6680   Anisotropy =    10.6020

     12  H    Isotropic =    23.1679   Anisotropy =     8.5727

     13  H    Isotropic =    23.4812   Anisotropy =     4.0026

     14  H    Isotropic =    23.9022   Anisotropy =     6.2303

     15  H    Isotropic =    23.1559   Anisotropy =    11.9057

 The electronic state is 1-A.
 Alpha  occ. eigenvalues -- -485.37517 -89.93411 -63.35996 -57.17941 -57.17704
 Alpha  occ. eigenvalues --  -57.17700 -10.60485 -10.58529 -10.58057 -10.56680
 Alpha  occ. eigenvalues --  -10.56280 -10.56107 -10.55907 -10.55398  -9.02640
 Alpha  occ. eigenvalues --   -8.29172  -6.85046  -6.84170  -6.84155  -6.21098
 Alpha  occ. eigenvalues --   -6.20911  -6.20720  -2.88422  -2.88104  -2.88084
 Alpha  occ. eigenvalues --   -2.87269  -2.87269  -1.00552  -0.95145  -0.88991
 Alpha  occ. eigenvalues --   -0.86730  -0.81759  -0.79512  -0.71154  -0.66849
 Alpha  occ. eigenvalues --   -0.64615  -0.58622  -0.55608  -0.53295  -0.50836
 Alpha  occ. eigenvalues --   -0.49897  -0.48803  -0.45352  -0.42880  -0.42667
 Alpha  occ. eigenvalues --   -0.42422  -0.39890  -0.36817  -0.35194  -0.34780
 Alpha  occ. eigenvalues --   -0.29083  -0.27669
 Alpha virt. eigenvalues --   -0.01282   0.00773   0.03165   0.05312   0.06072
 Alpha virt. eigenvalues --    0.09871   0.10614   0.10954   0.11802   0.13442
 Alpha virt. eigenvalues --    0.14703   0.14966   0.16489   0.17155   0.18962

 Mulliken charges:
               1
     1  Br  -0.117366
     2  C    0.072580
     3  C   -0.175395
     4  C   -0.169224
     5  C   -0.057672
     6  S    0.064980
     7  C   -0.167992
     8  C   -0.255759
     9  C    0.158604
    10  C   -0.242343
    11  H    0.179468
    12  H    0.173794
    13  H    0.191626
    14  H    0.165280
    15  H    0.179418
 Sum of Mulliken charges =   0.00000

 Dipole moment (field-independent basis, Debye):
    X=             -2.0803    Y=             -0.4370    Z=             -0.0001  Tot=              2.1257
 Quadrupole moment (field-independent basis, Debye-Ang):
   XX=            -74.8814   YY=            -67.5878   ZZ=            -82.3704
   XY=              4.1686   XZ=             -0.0000   YZ=             -0.0004

 Normal termination of Gaussian 16 at Tue Sep 17 10:28:25 2024.
