 Gaussian 16, Revision C.02,

 ----------------------------------------------------------------------
 #p B3LYP/6-31G(d,p) EmpiricalDispersion=GD3BJ opt freq scf(xqc,tight)
 integral(grid=ultrafine)
 ----------------------------------------------------------------------

 ----------------------------------
 opt-freq conformers_unique/conf_ac
 ----------------------------------
 Symbolic Z-matrix:
 Charge =  0 Multiplicity = 1

 SCF Done:  E(RB3LYP) =  -3063.33260701     A.U. after   15 cycles
 SCF Done:  E(RB3LYP) =  -3063.33444875     A.U. after   13 cycles
 SCF Done:  E(RB3LYP) =  -3063.33465377     A.U. after   12 cycles
 SCF Done:  E(RB3LYP) =  -3063.33450020     A.U. after   14 cycles
 SCF Done:  E(RB3LYP) =  -3063.33481239     A.U. after   13 cycles
 SCF Done:  E(RB3LYP) =  -3063.33485369     A.U. after   12 cycles
 SCF Done:  E(RB3LYP) =  -3063.33485805     A.U. after   12 cycles
 SCF Done:  E(RB3LYP) =  -3063.33486537     A.U. after   10 cycles
 SCF Done:  E(RB3LYP) =  -3063.33486590     A.U. after    8 cycles
 Optimization completed.
    -- Stationary point found.
 Normal termination of Gaussian 16 at Tue Sep 17 09:46:18 2024.

 ----------------------------------------------------------------------
 #P Geom=AllCheck Guess=TCheck SCRF=Check GenChk RB3LYP/6-31G(d,p) Freq
 ----------------------------------------------------------------------

 Structure from the checkpoint file:  "smiles_00126_conf_2.chk"
 ----------------------------------
 opt-freq conformers_unique/conf_ac
 ----------------------------------
 Charge =  0 Multiplicity = 1

 SCF Done:  E(RB3LYP) =  -3063.33486590     A.U. after    1 cycles

                      1                      2                      3
                      A                      A                      A
 Frequencies --     28.9365               101.6845               115.7472
 Red. masses --      6.5091                 3.1585                 6.6857
 Frc consts  --      0.0032                 0.0192                 0.0528
 IR Inten    --      1.0191                 0.8149                 0.5077

                      4                      5                      6
                      A                      A                      A
 Frequencies --    128.9542               149.0183               201.3989
 Red. masses --      1.2011                 6.2976                 5.6502
 Frc consts  --      0.0118                 0.0824                 0.1350
 IR Inten    --      0.0693                 3.5529                 5.2409

                      7                      8                      9
                      A                      A                      A
 Frequencies --    225.7180               311.9807               338.1931
 Red. masses --      6.8994                 9.0427                 4.9802
 Frc consts  --      0.2071                 0.5186                 0.3356
 IR Inten    --      0.9466                13.3693                 7.8490

                     10                     11                     12
                      A                      A                      A
 Frequencies --    383.8159               435.4443               503.4131
 Red. masses --     11.2313                 3.8897                 7.5366
 Frc consts  --      0.9748                 0.4345                 1.1253
 IR Inten    --      1.6673                 0.0002                 5.7546

                     13                     14                     15
                      A                      A                      A
 Frequencies --    547.2073               682.5591               757.2963
 Red. masses --      7.7196                 8.2057                 8.6230
 Frc consts  --      1.3619                 2.2524                 2.9137
 IR Inten    --      3.1127                18.2013                21.7241

                     16                     17                     18
                      A                      A                      A
 Frequencies --    764.8712               802.8712               861.7500
 Red. masses --      7.6437                 3.7629                 5.7984
 Frc consts  --      2.6347                 1.4291                 2.5370
 IR Inten    --     61.5533                 0.6011                31.1655

                     19                     20                     21
                      A                      A                      A
 Frequencies --    881.7009              1005.3869              1006.8256
 Red. masses --      1.5626                 9.8215                 1.4011
 Frc consts  --      0.7157                 5.8492                 0.8368
 IR Inten    --     10.1729                 1.1708                 0.0008

                     22                     23                     24
                      A                      A                      A
 Frequencies --   1021.3961              1114.5280              1180.0796
 Red. masses --      8.5481                 1.5099                 1.2770
 Frc consts  --      5.2542                 1.1051                 1.0478
 IR Inten    --     50.2684                 3.0750                 0.9502

                     25                     26                     27
                      A                      A                      A
 Frequencies --   1183.2815              1213.5003              1226.7028
 Red. masses --      3.1222                 2.7127                 2.0401
 Frc consts  --      2.5757                 2.3536                 1.8087
 IR Inten    --     45.8693               108.1030               127.2551

                     28                     29                     30
                      A                      A                      A
 Frequencies --   1259.9919              1306.6789              1383.9414
 Red. masses --      9.2694                 4.7592                 2.8654
 Frc consts  --      8.6704                 4.7876                 3.2335
 IR Inten    --     85.5660               296.8625               258.3673

                     31                     32                     33
                      A                      A                      A
 Frequencies --   1463.9091              1482.9074              1495.4582
 Red. masses --      2.3354                 1.2744                 1.0458
 Frc consts  --      2.9487                 1.6511                 1.3781
 IR Inten    --     14.1565                12.3184                 7.2774

                     34                     35                     36
                      A                      A                      A
 Frequencies --   1508.7302              1598.6027              1609.5198
 Red. masses --      1.0505                 7.1016                 6.2864
 Frc consts  --      1.4089                10.6927                 9.5950
 IR Inten    --      9.2487               128.4480               114.7524

                     37                     38                     39
                      A                      A                      A
 Frequencies --   1841.8024              3069.8008              3149.4423
 Red. masses --     12.0515                 1.0296                 1.1072
 Frc consts  --     24.0867                 5.7168                 6.4708
 IR Inten    --    164.0538                29.5716                15.9758

                     40                     41                     42
                      A                      A                      A
 Frequencies --   3183.3836              3185.3959              3258.2229
 Red. masses --      1.1074                 1.0920                 1.0942
 Frc consts  --      6.6122                 6.5282                 6.8438
 IR Inten    --     12.2025                17.5414                 0.2852

 - Thermochemistry -
 -------------------
 Temperature   298.150 Kelvin.  Pressure   1.00000 Atm.
 Atom     1 has atomic number  6 and mass  12.00000

 Molecular mass:   215.95344 amu.
 Principal axes and moments of inertia in atomic units:
                           1         2         3
     Eigenvalues --   892.512424920.256695801.39927
           X            0.99985   0.01706   0.00000
           Y           -0.01706   0.99985   0.00001
           Z           -0.00000  -0.00001   1.00000
 This molecule is an asymmetric top.
 Rotational symmetry number  1.
 Warning -- assumption of classical behavior for rotation
           may cause significant error
 Rotational temperatures (Kelvin)      0.09705     0.01760     0.01493
 Rotational constants (GHZ):           2.02209     0.36680     0.31109
 Zero-point vibrational energy     286936.6 (Joules/Mol)
                                   68.57949 (Kcal/Mol)
 Warning -- explicit consideration of  13 degrees of freedom as
           vibrations may cause significant error
 Vibrational temperatures:     41.63   146.30   166.53   185.54   214.40
          (Kelvin)            289.77   324.76   448.87   486.58   552.23
                              626.51   724.30   787.31   982.05  1089.58
                             1100.48  1155.15  1239.87  1268.57  1446.53
                             1448.60  1469.56  1603.56  1697.87  1702.48
                             1745.96  1764.95  1812.85  1880.02  1991.18
                             2106.24  2133.57  2151.63  2170.73  2300.03
                             2315.74  2649.94  4416.76  4531.35  4580.18
                             4583.07  4687.86

 Zero-point correction=                           0.109288 (Hartree/Particle)
 Thermal correction to Energy=                    0.119393
 Thermal correction to Enthalpy=                  0.120337
 Thermal correction to Gibbs Free Energy=         0.071209
 Sum of electronic and zero-point Energies=          -3063.225578
 Sum of electronic and thermal Energies=             -3063.215473
 Sum of electronic and thermal Enthalpies=           -3063.214529
 Sum of electronic and thermal Free Energies=        -3063.263657

                     E (Thermal)             CV                S
                      KCal/Mol        Cal/Mol-Kelvin    Cal/Mol-Kelvin
 Total                   74.920             34.903            103.399
 Electronic               0.000              0.000              0.000
 Translational            0.889              2.981             42.013
 Rotational               0.889              2.981             31.611
 Vibrational             73.143             28.941             29.776
 Vibration     1          0.593              1.984              5.901
 Vibration     2          0.604              1.948              3.422
 Vibration     3          0.608              1.936              3.170
 Vibration     4          0.611              1.924              2.962
 Vibration     5          0.618              1.904              2.685
 Vibration     6          0.638              1.838              2.120
 Vibration     7          0.650              1.802              1.913
 Vibration     8          0.700              1.651              1.352
 Vibration     9          0.718              1.599              1.221
 Vibration    10          0.753              1.505              1.024
 Vibration    11          0.796              1.393              0.841
 Vibration    12          0.859              1.242              0.650
 Vibration    13          0.902              1.146              0.550

                           ! Non-Optimized Parameters !
 Normal termination of Gaussian 16 at Tue Sep 17 09:47:17 2024.

 ----------------------------------------------------------------------
 #p M062X/def2tzvp geom=check guess=read scf(xqc,tight) integral(grid=u
 ltrafine) scrf(SMD, solvent=1,4-Dioxane) polar prop=efg volume
 ----------------------------------------------------------------------

 ---
 spe
 ---
 Structure from the checkpoint file:  "smiles_00126_conf_2.chk"
 Charge =  0 Multiplicity = 1

 SCF Done:  E(RM062X) =  -3065.79586767     A.U. after   12 cycles

  Exact polarizability:     167.211      -8.345     128.784       0.007       0.003      70.241
 Approx polarizability:     163.363     -10.400     154.705       0.005      -0.004      87.118

 Normal termination of Gaussian 16 at Tue Sep 17 10:20:28 2024.
 Gaussian 16:  ES64L-G16RevC.02  7-Dec-2021

 ----------------------------------------------------------------------
 #p M062X/def2tzvp geom=check guess=read scf(xqc,tight) integral(grid=u
 ltrafine) scrf(SMD, solvent=1,4-Dioxane) nmr=giao
 ----------------------------------------------------------------------

 ---
 spe
 ---
 Structure from the checkpoint file:  "smiles_00126_conf_2.chk"
 Charge =  0 Multiplicity = 1

                         Standard orientation:
 ---------------------------------------------------------------------
 Center     Atomic      Atomic             Coordinates (Angstroms)
 Number     Number       Type             X           Y           Z
 ---------------------------------------------------------------------
      1          6           0       -4.657091   -0.505800   -0.000293
      2          8           0       -3.410961    0.213013   -0.000910
      3          6           0       -2.307679   -0.565017    0.000136
      4          8           0       -2.322543   -1.771513    0.000941
      5          6           0       -1.057985    0.280679    0.000259
      6          6           0       -1.099838    1.675058    0.000418
      7          6           0        0.131125    2.328518    0.000300
      8          7           0        1.295567    1.670566   -0.000008
      9          6           0        1.195788    0.343283   -0.000114
     10         35           0        2.846547   -0.611356   -0.000115
     11          7           0        0.098122   -0.396829   -0.000090
     12          1           0       -5.435194    0.255977    0.005405
     13          1           0       -4.728497   -1.140472    0.885641
     14          1           0       -4.733965   -1.132202   -0.891715
     15          1           0       -2.038375    2.211723    0.000634
     16          1           0        0.193164    3.413961    0.000263
 ---------------------------------------------------------------------

 SCF Done:  E(RM062X) =  -3065.79586767     A.U. after    1 cycles

      1  C    Isotropic =   129.7644   Anisotropy =    73.6511

      2  O    Isotropic =   128.4842   Anisotropy =   175.7599

      3  C    Isotropic =     4.3869   Anisotropy =    94.5286

      4  O    Isotropic =  -163.4496   Anisotropy =   757.1819

      5  C    Isotropic =     3.2199   Anisotropy =   193.4899

      6  C    Isotropic =    44.7449   Anisotropy =   207.7786

      7  C    Isotropic =    -3.2593   Anisotropy =   224.6301

      8  N    Isotropic =  -134.9682   Anisotropy =   553.5597

      9  C    Isotropic =   -12.5967   Anisotropy =    99.7854

     10  Br   Isotropic =  1799.3620   Anisotropy =  1651.6786

     11  N    Isotropic =  -123.0801   Anisotropy =   528.9631

     12  H    Isotropic =    27.9569   Anisotropy =     7.4880

     13  H    Isotropic =    27.8649   Anisotropy =     7.9326

     14  H    Isotropic =    27.8811   Anisotropy =     7.9691

     15  H    Isotropic =    23.1021   Anisotropy =     9.4654

     16  H    Isotropic =    22.1582   Anisotropy =     7.6092

 The electronic state is 1-A.
 Alpha  occ. eigenvalues -- -485.38067 -63.36574 -57.18518 -57.18285 -57.18260
 Alpha  occ. eigenvalues --  -19.69016 -19.63662 -14.78825 -14.78781 -10.69426
 Alpha  occ. eigenvalues --  -10.68018 -10.63176 -10.61919 -10.59766 -10.58173
 Alpha  occ. eigenvalues --   -9.03241  -6.85661  -6.84794  -6.84711  -2.89040
 Alpha  occ. eigenvalues --   -2.88739  -2.88656  -2.87851  -2.87849  -1.25038
 Alpha  occ. eigenvalues --   -1.15947  -1.13493  -1.02992  -0.94112  -0.87251
 Alpha  occ. eigenvalues --   -0.84383  -0.77955  -0.74992  -0.67663  -0.63660
 Alpha  occ. eigenvalues --   -0.61936  -0.58399  -0.57500  -0.55877  -0.53943
 Alpha  occ. eigenvalues --   -0.53894  -0.50537  -0.48331  -0.48257  -0.44795
 Alpha  occ. eigenvalues --   -0.40324  -0.39942  -0.39774  -0.39203  -0.38206
 Alpha  occ. eigenvalues --   -0.36401  -0.34485  -0.33374
 Alpha virt. eigenvalues --   -0.05921  -0.02146   0.03776   0.06719   0.07462
 Alpha virt. eigenvalues --    0.09453   0.10345   0.10953   0.13211   0.15030
 Alpha virt. eigenvalues --    0.15194   0.17149   0.17258   0.18060   0.20117

 Mulliken charges:
               1
     1  C   -0.267492
     2  O   -0.273482
     3  C    0.344979
     4  O   -0.307121
     5  C    0.128829
     6  C   -0.177514
     7  C   -0.004655
     8  N   -0.226870
     9  C    0.197983
    10  Br  -0.059789
    11  N   -0.213926
    12  H    0.159604
    13  H    0.166039
    14  H    0.166055
    15  H    0.184793
    16  H    0.182567
 Sum of Mulliken charges =  -0.00000

 Dipole moment (field-independent basis, Debye):
    X=             -4.6961    Y=              3.9980    Z=              0.0003  Tot=              6.1675
 Quadrupole moment (field-independent basis, Debye-Ang):
   XX=            -61.9042   YY=            -74.7942   ZZ=            -74.5709
   XY=             -5.9361   XZ=             -0.0003   YZ=              0.0057

 Normal termination of Gaussian 16 at Tue Sep 17 10:32:53 2024.
