 Gaussian 16, Revision C.02,

 ----------------------------------------------------------------------
 #p B3LYP/6-31G(d,p) EmpiricalDispersion=GD3BJ opt freq scf(xqc,tight)
 integral(grid=ultrafine)
 ----------------------------------------------------------------------

 ----------------------------------
 opt-freq conformers_unique/conf_ad
 ----------------------------------
 Symbolic Z-matrix:
 Charge =  0 Multiplicity = 1

 SCF Done:  E(RB3LYP) =  -3031.26573935     A.U. after   15 cycles
 SCF Done:  E(RB3LYP) =  -3031.26680691     A.U. after   11 cycles
 SCF Done:  E(RB3LYP) =  -3031.26690296     A.U. after   12 cycles
 SCF Done:  E(RB3LYP) =  -3031.26715589     A.U. after   13 cycles
 SCF Done:  E(RB3LYP) =  -3031.26756673     A.U. after   14 cycles
 SCF Done:  E(RB3LYP) =  -3031.26845673     A.U. after   13 cycles
 SCF Done:  E(RB3LYP) =  -3031.27018553     A.U. after   13 cycles
 SCF Done:  E(RB3LYP) =  -3031.27054573     A.U. after   14 cycles
 SCF Done:  E(RB3LYP) =  -3031.27049826     A.U. after   12 cycles
 SCF Done:  E(RB3LYP) =  -3031.27074537     A.U. after   11 cycles
 SCF Done:  E(RB3LYP) =  -3031.27076756     A.U. after   10 cycles
 SCF Done:  E(RB3LYP) =  -3031.27078330     A.U. after   11 cycles
 SCF Done:  E(RB3LYP) =  -3031.27078687     A.U. after    9 cycles
 SCF Done:  E(RB3LYP) =  -3031.27078862     A.U. after    8 cycles
 SCF Done:  E(RB3LYP) =  -3031.27078916     A.U. after    9 cycles
 SCF Done:  E(RB3LYP) =  -3031.27078920     A.U. after    8 cycles
 Optimization completed.
    -- Stationary point found.
 Normal termination of Gaussian 16 at Tue Sep 17 09:47:44 2024.

 ----------------------------------------------------------------------
 #P Geom=AllCheck Guess=TCheck SCRF=Check GenChk RB3LYP/6-31G(d,p) Freq
 ----------------------------------------------------------------------

 Structure from the checkpoint file:  "smiles_00098_conf_3.chk"
 ----------------------------------
 opt-freq conformers_unique/conf_ad
 ----------------------------------
 Charge =  0 Multiplicity = 1

 SCF Done:  E(RB3LYP) =  -3031.27078920     A.U. after    1 cycles

                      1                      2                      3
                      A                      A                      A
 Frequencies --     27.3395                94.8821               126.9576
 Red. masses --      7.3553                 3.3974                 1.9727
 Frc consts  --      0.0032                 0.0180                 0.0187
 IR Inten    --      1.2528                 0.8795                 0.7229

                      4                      5                      6
                      A                      A                      A
 Frequencies --    141.9454               157.8647               211.6297
 Red. masses --      1.7681                 4.1209                 5.9533
 Frc consts  --      0.0210                 0.0605                 0.1571
 IR Inten    --      0.3596                 2.7068                 1.1783

                      7                      8                      9
                      A                      A                      A
 Frequencies --    251.1103               288.1542               351.0907
 Red. masses --      5.1748                 9.2458                 5.3382
 Frc consts  --      0.1923                 0.4523                 0.3877
 IR Inten    --      1.4732                 0.5031                18.4241

                     10                     11                     12
                      A                      A                      A
 Frequencies --    402.2343               439.9784               488.3031
 Red. masses --      6.6429                 3.8096                 4.5118
 Frc consts  --      0.6332                 0.4345                 0.6338
 IR Inten    --      1.9057                 1.9899                 5.2250

                     13                     14                     15
                      A                      A                      A
 Frequencies --    528.1646               660.4570               709.7024
 Red. masses --      5.1120                 6.5186                 4.7297
 Frc consts  --      0.8402                 1.6753                 1.4036
 IR Inten    --      3.9384                 8.1640                14.2659

                     16                     17                     18
                      A                      A                      A
 Frequencies --    713.3933               767.1582               807.2759
 Red. masses --      6.4359                 1.5525                 2.7606
 Frc consts  --      1.9298                 0.5383                 1.0600
 IR Inten    --     12.0860                42.7475                 2.3538

                     19                     20                     21
                      A                      A                      A
 Frequencies --    839.3695               902.3161               979.6960
 Red. masses --      5.2489                 1.4414                 1.3756
 Frc consts  --      2.1789                 0.6914                 0.7779
 IR Inten    --      7.8230                 0.3193                 1.5615

                     22                     23                     24
                      A                      A                      A
 Frequencies --   1003.2409              1010.2250              1050.7477
 Red. masses --      6.5838                 1.3402                 7.8696
 Frc consts  --      3.9043                 0.8058                 5.1192
 IR Inten    --     13.2744                 0.5608                57.6743

                     25                     26                     27
                      A                      A                      A
 Frequencies --   1078.2173              1138.9040              1168.3109
 Red. masses --      2.3482                 2.5877                 1.7939
 Frc consts  --      1.6084                 1.9776                 1.4427
 IR Inten    --     12.2400                69.0691                47.1342

                     28                     29                     30
                      A                      A                      A
 Frequencies --   1180.3927              1194.5739              1216.2418
 Red. masses --      1.2769                 1.0950                 1.6200
 Frc consts  --      1.0482                 0.9206                 1.4119
 IR Inten    --      1.0709                 5.3970                55.7295

                     31                     32                     33
                      A                      A                      A
 Frequencies --   1287.7117              1296.7888              1350.6009
 Red. masses --      4.4326                 1.5246                 8.6047
 Frc consts  --      4.3306                 1.5106                 9.2478
 IR Inten    --    388.9029                35.5218                41.2596

                     34                     35                     36
                      A                      A                      A
 Frequencies --   1472.6272              1480.2417              1494.7953
 Red. masses --      2.1114                 1.1990                 1.0465
 Frc consts  --      2.6977                 1.5479                 1.3777
 IR Inten    --     21.2097                13.2769                 6.1975

                     37                     38                     39
                      A                      A                      A
 Frequencies --   1509.8095              1512.5468              1620.7578
 Red. masses --      1.2732                 1.7573                 5.8147
 Frc consts  --      1.7100                 2.3687                 8.9995
 IR Inten    --     27.6937                 7.3710                12.2395

                     40                     41                     42
                      A                      A                      A
 Frequencies --   1647.4355              1815.1524              3065.6444
 Red. masses --      5.9339                11.9448                 1.0297
 Frc consts  --      9.4887                23.1876                 5.7018
 IR Inten    --     25.8362               191.4330                36.3125

                     43                     44                     45
                      A                      A                      A
 Frequencies --   3143.0715              3176.0062              3193.8085
 Red. masses --      1.1068                 1.1072                 1.0869
 Frc consts  --      6.4423                 6.5801                 6.5320
 IR Inten    --     19.1955                16.1799                 2.9699

                     46                     47                     48
                      A                      A                      A
 Frequencies --   3209.5688              3224.8353              3239.3997
 Red. masses --      1.0929                 1.0946                 1.0928
 Frc consts  --      6.6334                 6.7066                 6.7564
 IR Inten    --     13.3186                 4.2612                 2.5684

 - Thermochemistry -
 -------------------
 Temperature   298.150 Kelvin.  Pressure   1.00000 Atm.
 Atom     1 has atomic number  6 and mass  12.00000

 Molecular mass:   213.96294 amu.
 Principal axes and moments of inertia in atomic units:
                           1         2         3
     Eigenvalues --  1877.478082558.679484387.93885
           X            0.98345   0.18116  -0.00310
           Y           -0.18116   0.98345  -0.00001
           Z            0.00305   0.00057   1.00000
 This molecule is an asymmetric top.
 Rotational symmetry number  1.
 Warning -- assumption of classical behavior for rotation
           may cause significant error
 Rotational temperatures (Kelvin)      0.04613     0.03385     0.01974
 Rotational constants (GHZ):           0.96126     0.70534     0.41130
 Zero-point vibrational energy     350928.6 (Joules/Mol)
                                   83.87395 (Kcal/Mol)
 Warning -- explicit consideration of  13 degrees of freedom as
           vibrations may cause significant error
 Vibrational temperatures:     39.34   136.51   182.66   204.23   227.13
          (Kelvin)            304.49   361.29   414.59   505.14   578.73
                              633.03   702.56   759.91   950.25  1021.10
                             1026.41  1103.77  1161.49  1207.67  1298.23
                             1409.56  1443.44  1453.49  1511.79  1551.31
                             1638.63  1680.94  1698.32  1718.73  1749.90
                             1852.73  1865.79  1943.21  2118.78  2129.74
                             2150.68  2172.28  2176.22  2331.91  2370.29
                             2611.60  4410.78  4522.18  4569.56  4595.18
                             4617.85  4639.82  4660.77

 Zero-point correction=                           0.133662 (Hartree/Particle)
 Thermal correction to Energy=                    0.143890
 Thermal correction to Enthalpy=                  0.144834
 Thermal correction to Gibbs Free Energy=         0.095759
 Sum of electronic and zero-point Energies=          -3031.137128
 Sum of electronic and thermal Energies=             -3031.126900
 Sum of electronic and thermal Enthalpies=           -3031.125955
 Sum of electronic and thermal Free Energies=        -3031.175030

                     E (Thermal)             CV                S
                      KCal/Mol        Cal/Mol-Kelvin    Cal/Mol-Kelvin
 Total                   90.292             36.536            103.286
 Electronic               0.000              0.000              0.000
 Translational            0.889              2.981             41.985
 Rotational               0.889              2.981             31.422
 Vibrational             88.515             30.574             29.878
 Vibration     1          0.593              1.984              6.014
 Vibration     2          0.603              1.953              3.557
 Vibration     3          0.611              1.926              2.992
 Vibration     4          0.615              1.911              2.777
 Vibration     5          0.621              1.894              2.575
 Vibration     6          0.643              1.823              2.030
 Vibration     7          0.663              1.761              1.723
 Vibration     8          0.685              1.696              1.485
 Vibration     9          0.728              1.573              1.161
 Vibration    10          0.768              1.465              0.954
 Vibration    11          0.800              1.383              0.827
 Vibration    12          0.844              1.276              0.688
 Vibration    13          0.883              1.188              0.591

 Optimization completed.
    -- Stationary point found.
 Normal termination of Gaussian 16 at Tue Sep 17 09:49:03 2024.

 ----------------------------------------------------------------------
 #p M062X/def2tzvp geom=check guess=read scf(xqc,tight) integral(grid=u
 ltrafine) scrf(SMD, solvent=1,4-Dioxane) polar prop=efg volume
 ----------------------------------------------------------------------

 ---
 spe
 ---
 Structure from the checkpoint file:  "smiles_00098_conf_3.chk"
 Charge =  0 Multiplicity = 1

 SCF Done:  E(RM062X) =  -3033.70908000     A.U. after   13 cycles

  Exact polarizability:     158.751       2.213     169.678       0.330       0.859      77.422
 Approx polarizability:     164.262      -3.584     188.778       0.412       2.879      96.770

 Normal termination of Gaussian 16 at Tue Sep 17 10:33:03 2024.
 Gaussian 16:  ES64L-G16RevC.02  7-Dec-2021

 ----------------------------------------------------------------------
 #p M062X/def2tzvp geom=check guess=read scf(xqc,tight) integral(grid=u
 ltrafine) scrf(SMD, solvent=1,4-Dioxane) nmr=giao
 ----------------------------------------------------------------------

 ---
 spe
 ---
 Structure from the checkpoint file:  "smiles_00098_conf_3.chk"
 Charge =  0 Multiplicity = 1

                         Standard orientation:
 ---------------------------------------------------------------------
 Center     Atomic      Atomic             Coordinates (Angstroms)
 Number     Number       Type             X           Y           Z
 ---------------------------------------------------------------------
      1          6           0        3.860760    0.585362   -0.154824
      2          8           0        2.717469   -0.278469   -0.236818
      3          6           0        1.543394    0.299593    0.119602
      4          8           0        1.462934    1.460460    0.457162
      5          6           0        0.418120   -0.681105    0.052136
      6          6           0        0.713961   -2.055458    0.063410
      7          6           0       -0.289639   -3.015744    0.043667
      8          6           0       -1.624853   -2.614804    0.001424
      9          6           0       -1.944665   -1.260411   -0.021220
     10          6           0       -0.934000   -0.298562    0.008111
     11         35           0       -1.504907    1.518052   -0.059834
     12          1           0        3.736866    1.447457   -0.814130
     13          1           0        4.709151   -0.021307   -0.469626
     14          1           0        4.000222    0.943461    0.868014
     15          1           0        1.754203   -2.353118    0.093456
     16          1           0       -0.031723   -4.069351    0.060258
     17          1           0       -2.421268   -3.352123   -0.016540
     18          1           0       -2.977386   -0.936008   -0.063811
 ---------------------------------------------------------------------

 SCF Done:  E(RM062X) =  -3033.70908000     A.U. after    1 cycles

      1  C    Isotropic =   130.7348   Anisotropy =    71.5908

      2  O    Isotropic =   129.1485   Anisotropy =   171.0553

      3  C    Isotropic =     0.7359   Anisotropy =   103.3371

      4  O    Isotropic =  -160.3195   Anisotropy =   729.0568

      5  C    Isotropic =    33.3110   Anisotropy =   181.8741

      6  C    Isotropic =    28.9626   Anisotropy =   218.6285

      7  C    Isotropic =    36.9552   Anisotropy =   217.1817

      8  C    Isotropic =    28.4680   Anisotropy =   218.4362

      9  C    Isotropic =    26.9716   Anisotropy =   181.0555

     10  C    Isotropic =    20.6036   Anisotropy =   163.1356

     11  Br   Isotropic =  2035.9141   Anisotropy =  1175.4329

     12  H    Isotropic =    27.9145   Anisotropy =     8.0667

     13  H    Isotropic =    28.0454   Anisotropy =     7.8573

     14  H    Isotropic =    27.9862   Anisotropy =     8.2520

     15  H    Isotropic =    22.7294   Anisotropy =    10.0074

     16  H    Isotropic =    23.6713   Anisotropy =     5.9201

     17  H    Isotropic =    23.5065   Anisotropy =     6.2204

     18  H    Isotropic =    23.4028   Anisotropy =    11.4767

 The electronic state is 1-A.
 Alpha  occ. eigenvalues -- -485.37304 -63.35779 -57.17733 -57.17492 -57.17467
 Alpha  occ. eigenvalues --  -19.67508 -19.62172 -10.68280 -10.61651 -10.58826
 Alpha  occ. eigenvalues --  -10.57900 -10.56350 -10.56308 -10.56146 -10.55659
 Alpha  occ. eigenvalues --   -9.02426  -6.84862  -6.83970  -6.83888  -2.88240
 Alpha  occ. eigenvalues --   -2.87934  -2.87852  -2.87020  -2.87018  -1.23615
 Alpha  occ. eigenvalues --   -1.14354  -0.99006  -0.90357  -0.88470  -0.82790
 Alpha  occ. eigenvalues --   -0.81185  -0.72672  -0.69495  -0.65479  -0.62107
 Alpha  occ. eigenvalues --   -0.57197  -0.56913  -0.56420  -0.53490  -0.52738
 Alpha  occ. eigenvalues --   -0.49132  -0.48855  -0.48384  -0.45392  -0.43791
 Alpha  occ. eigenvalues --   -0.43721  -0.41382  -0.38526  -0.38203  -0.37317
 Alpha  occ. eigenvalues --   -0.33232  -0.32780  -0.30365
 Alpha virt. eigenvalues --   -0.02780   0.00334   0.03770   0.08036   0.08497
 Alpha virt. eigenvalues --    0.09532   0.11106   0.11784   0.13243   0.13651
 Alpha virt. eigenvalues --    0.15250   0.15969   0.16181   0.18218   0.18774

 Mulliken charges:
               1
     1  C   -0.263569
     2  O   -0.283899
     3  C    0.364826
     4  O   -0.341386
     5  C    0.096307
     6  C   -0.170181
     7  C   -0.160192
     8  C   -0.143081
     9  C   -0.151099
    10  C   -0.049817
    11  Br  -0.071476
    12  H    0.160604
    13  H    0.154788
    14  H    0.160413
    15  H    0.180716
    16  H    0.169027
    17  H    0.171582
    18  H    0.176437
 Sum of Mulliken charges =   0.00000

 Dipole moment (field-independent basis, Debye):
    X=              1.0821    Y=             -3.6933    Z=             -0.4449  Tot=              3.8742
 Quadrupole moment (field-independent basis, Debye-Ang):
   XX=            -61.4295   YY=            -70.9311   ZZ=            -79.1086
   XY=              3.1334   XZ=             -0.5605   YZ=             -1.8619

 Normal termination of Gaussian 16 at Tue Sep 17 10:49:03 2024.
