 Gaussian 16, Revision C.02,

 ----------------------------------------------------------------------
 #p B3LYP/6-31G(d,p) EmpiricalDispersion=GD3BJ opt freq scf(xqc,tight)
 integral(grid=ultrafine)
 ----------------------------------------------------------------------

 ----------------------------------
 opt-freq conformers_unique/conf_aa
 ----------------------------------
 Symbolic Z-matrix:
 Charge =  0 Multiplicity = 1

 SCF Done:  E(RB3LYP) =  -2934.96908445     A.U. after   15 cycles
 SCF Done:  E(RB3LYP) =  -2934.97048883     A.U. after   11 cycles
 SCF Done:  E(RB3LYP) =  -2934.97052415     A.U. after    9 cycles
 SCF Done:  E(RB3LYP) =  -2934.97052616     A.U. after    8 cycles
 Optimization completed.
    -- Stationary point found.
 Normal termination of Gaussian 16 at Tue Sep 17 09:54:35 2024.

 ----------------------------------------------------------------------
 #P Geom=AllCheck Guess=TCheck SCRF=Check GenChk RB3LYP/6-31G(d,p) Freq
 ----------------------------------------------------------------------

 Structure from the checkpoint file:  "smiles_00014_conf_0.chk"
 ----------------------------------
 opt-freq conformers_unique/conf_aa
 ----------------------------------
 Charge =  0 Multiplicity = 1

 SCF Done:  E(RB3LYP) =  -2934.97052616     A.U. after    1 cycles

                      1                      2                      3
                      A                      A                      A
 Frequencies --    139.5069               166.2566               218.8945
 Red. masses --      5.4010                 7.8075                 4.0735
 Frc consts  --      0.0619                 0.1272                 0.1150
 IR Inten    --      0.5956                 0.8505                11.4376

                      4                      5                      6
                      A                      A                      A
 Frequencies --    264.6769               305.2633               396.0763
 Red. masses --      4.4858                10.4449                 1.2634
 Frc consts  --      0.1851                 0.5735                 0.1168
 IR Inten    --      2.4971                 1.8582                79.7317

                      7                      8                      9
                      A                      A                      A
 Frequencies --    455.0257               518.6057               582.8416
 Red. masses --      4.1795                 4.0906                 6.9165
 Frc consts  --      0.5099                 0.6482                 1.3843
 IR Inten    --      3.1473                 0.6595                 5.2164

                     10                     11                     12
                      A                      A                      A
 Frequencies --    592.3449               627.3982               632.6240
 Red. masses --      3.9419                 2.9730                 6.6639
 Frc consts  --      0.8149                 0.6895                 1.5713
 IR Inten    --      0.2570                 1.2595                 1.2772

                     13                     14                     15
                      A                      A                      A
 Frequencies --    735.2128               763.4853               819.7973
 Red. masses --      1.3555                 1.2615                 3.7874
 Frc consts  --      0.4317                 0.4332                 1.4997
 IR Inten    --     18.0452                75.4301                 0.1303

                     16                     17                     18
                      A                      A                      A
 Frequencies --    828.6030               868.1312               889.3883
 Red. masses --      5.4790                 1.3560                 1.3569
 Frc consts  --      2.2164                 0.6021                 0.6324
 IR Inten    --     12.4329                 2.6096                 0.1532

                     19                     20                     21
                      A                      A                      A
 Frequencies --    906.2287               930.3159               960.3970
 Red. masses --      5.4694                 4.0092                 1.2923
 Frc consts  --      2.6465                 2.0444                 0.7023
 IR Inten    --     27.8025                15.5310                 1.1543

                     22                     23                     24
                      A                      A                      A
 Frequencies --   1079.8761              1096.7369              1116.2738
 Red. masses --      2.0139                 1.6593                 1.4168
 Frc consts  --      1.3837                 1.1759                 1.0402
 IR Inten    --      2.6229                24.2186                 4.7447

                     25                     26                     27
                      A                      A                      A
 Frequencies --   1171.3177              1209.4071              1242.7995
 Red. masses --      1.3182                 2.1458                 1.6195
 Frc consts  --      1.0656                 1.8492                 1.4738
 IR Inten    --      8.0576                38.8938                 1.1399

                     28                     29                     30
                      A                      A                      A
 Frequencies --   1303.1117              1378.3291              1384.0563
 Red. masses --      2.4333                 4.5238                 2.2254
 Frc consts  --      2.4345                 5.0636                 2.5116
 IR Inten    --      8.9579                45.1405                12.9678

                     31                     32                     33
                      A                      A                      A
 Frequencies --   1458.3372              1468.3420              1531.6735
 Red. masses --      3.9199                 2.5405                 3.1271
 Frc consts  --      4.9118                 3.2271                 4.3223
 IR Inten    --     17.6146                21.0683                21.0952

                     34                     35                     36
                      A                      A                      A
 Frequencies --   1562.6525              1620.3496              1671.4484
 Red. masses --      4.3224                 5.5322                 7.2136
 Frc consts  --      6.2187                 8.5578                11.8737
 IR Inten    --     11.1032                20.2648                 6.8888

                     37                     38                     39
                      A                      A                      A
 Frequencies --   3189.8416              3205.2013              3223.3270
 Red. masses --      1.0868                 1.0937                 1.0941
 Frc consts  --      6.5154                 6.6199                 6.6975
 IR Inten    --      2.8686                17.3425                 5.3318

                     40                     41                     42
                      A                      A                      A
 Frequencies --   3266.9124              3287.3155              3692.2043
 Red. masses --      1.0909                 1.1034                 1.0804
 Frc consts  --      6.8600                 7.0253                 8.6779
 IR Inten    --      0.1945                 1.4625                70.3461

 - Thermochemistry -
 -------------------
 Temperature   298.150 Kelvin.  Pressure   1.00000 Atm.
 Atom     1 has atomic number 35 and mass  78.91834

 Molecular mass:   194.96836 amu.
 Principal axes and moments of inertia in atomic units:
                           1         2         3
     Eigenvalues --  1029.975212564.454043594.42925
           X            0.99978   0.02116   0.00004
           Y           -0.02116   0.99978  -0.00003
           Z           -0.00004   0.00002   1.00000
 This molecule is an asymmetric top.
 Rotational symmetry number  1.
 Warning -- assumption of classical behavior for rotation
           may cause significant error
 Rotational temperatures (Kelvin)      0.08409     0.03377     0.02410
 Rotational constants (GHZ):           1.75222     0.70375     0.50209
 Zero-point vibrational energy     315578.4 (Joules/Mol)
                                   75.42505 (Kcal/Mol)
 Warning -- explicit consideration of  10 degrees of freedom as
           vibrations may cause significant error
 Vibrational temperatures:    200.72   239.21   314.94   380.81   439.21
          (Kelvin)            569.87   654.68   746.16   838.58   852.25
                              902.69   910.20  1057.81  1098.49  1179.51
                             1192.17  1249.05  1279.63  1303.86  1338.52
                             1381.80  1553.70  1577.96  1606.07  1685.26
                             1740.07  1788.11  1874.89  1983.11  1991.35
                             2098.22  2112.62  2203.74  2248.31  2331.32
                             2404.84  4589.47  4611.57  4637.65  4700.36
                             4729.71  5312.26

 Zero-point correction=                           0.120197 (Hartree/Particle)
 Thermal correction to Energy=                    0.127894
 Thermal correction to Enthalpy=                  0.128839
 Thermal correction to Gibbs Free Energy=         0.086684
 Sum of electronic and zero-point Energies=          -2934.850329
 Sum of electronic and thermal Energies=             -2934.842632
 Sum of electronic and thermal Enthalpies=           -2934.841688
 Sum of electronic and thermal Free Energies=        -2934.883842

                     E (Thermal)             CV                S
                      KCal/Mol        Cal/Mol-Kelvin    Cal/Mol-Kelvin
 Total                   80.255             30.406             88.721
 Electronic               0.000              0.000              0.000
 Translational            0.889              2.981             41.708
 Rotational               0.889              2.981             30.630
 Vibrational             78.477             24.444             16.383
 Vibration     1          0.615              1.914              2.811
 Vibration     2          0.624              1.884              2.477
 Vibration     3          0.647              1.812              1.968
 Vibration     4          0.671              1.738              1.631
 Vibration     5          0.696              1.664              1.388
 Vibration     6          0.763              1.479              0.977
 Vibration     7          0.813              1.350              0.781
 Vibration     8          0.874              1.209              0.613
 Vibration     9          0.940              1.068              0.480
 Vibration    10          0.950              1.048              0.463

 Optimization completed.
    -- Stationary point found.
 Normal termination of Gaussian 16 at Tue Sep 17 09:55:23 2024.

 ----------------------------------------------------------------------
 #p M062X/def2tzvp geom=check guess=read scf(xqc,tight) integral(grid=u
 ltrafine) scrf(SMD, solvent=1,4-Dioxane) polar prop=efg volume
 ----------------------------------------------------------------------

 ---
 spe
 ---
 Structure from the checkpoint file:  "smiles_00014_conf_0.chk"
 Charge =  0 Multiplicity = 1

 SCF Done:  E(RM062X) =  -2937.40712414     A.U. after   13 cycles

  Exact polarizability:     173.470       4.963     168.028      -0.004       0.002      72.789
 Approx polarizability:     190.881       4.295     187.169      -0.004       0.002      91.296

 Normal termination of Gaussian 16 at Tue Sep 17 10:20:19 2024.
 Gaussian 16:  ES64L-G16RevC.02  7-Dec-2021

 ----------------------------------------------------------------------
 #p M062X/def2tzvp geom=check guess=read scf(xqc,tight) integral(grid=u
 ltrafine) scrf(SMD, solvent=1,4-Dioxane) nmr=giao
 ----------------------------------------------------------------------

 ---
 spe
 ---
 Structure from the checkpoint file:  "smiles_00014_conf_0.chk"
 Charge =  0 Multiplicity = 1

                         Standard orientation:
 ---------------------------------------------------------------------
 Center     Atomic      Atomic             Coordinates (Angstroms)
 Number     Number       Type             X           Y           Z
 ---------------------------------------------------------------------
      1         35           0        2.212243   -0.310839   -0.000096
      2          6           0        0.467398    0.467410   -0.000009
      3          6           0        0.319046    1.844098    0.000030
      4          6           0       -0.970365    2.412212    0.000098
      5          6           0       -2.113885    1.623683    0.000137
      6          6           0       -1.939515    0.236886    0.000094
      7          7           0       -2.864680   -0.786212    0.000123
      8          6           0       -2.206275   -2.003633    0.000030
      9          6           0       -0.852675   -1.793129   -0.000015
     10          6           0       -0.652443   -0.374352    0.000014
     11          1           0        1.195117    2.481353    0.000007
     12          1           0       -1.065239    3.493183    0.000122
     13          1           0       -3.103659    2.069021    0.000186
     14          1           0       -3.863661   -0.664815   -0.000102
     15          1           0       -2.764965   -2.927811    0.000038
     16          1           0       -0.081058   -2.547132   -0.000043
 ---------------------------------------------------------------------

 SCF Done:  E(RM062X) =  -2937.40712414     A.U. after    1 cycles

      1  Br   Isotropic =  2171.7771   Anisotropy =  1117.8957

      2  C    Isotropic =    34.6253   Anisotropy =   125.0788

      3  C    Isotropic =    42.5011   Anisotropy =   169.9519

      4  C    Isotropic =    42.4318   Anisotropy =   200.1690

      5  C    Isotropic =    56.9865   Anisotropy =   178.4818

      6  C    Isotropic =    29.7195   Anisotropy =   170.7554

      7  N    Isotropic =    99.5691   Anisotropy =   104.5050

      8  C    Isotropic =    42.0571   Anisotropy =   145.2980

      9  C    Isotropic =    67.1664   Anisotropy =   138.6739

     10  C    Isotropic =    35.7075   Anisotropy =   179.2412

     11  H    Isotropic =    23.8645   Anisotropy =    10.5349

     12  H    Isotropic =    23.9290   Anisotropy =     5.8976

     13  H    Isotropic =    23.8003   Anisotropy =     6.5394

     14  H    Isotropic =    23.4037   Anisotropy =     9.2690

     15  H    Isotropic =    23.9662   Anisotropy =     4.2081

     16  H    Isotropic =    24.4116   Anisotropy =     8.0674

 The electronic state is 1-A.
 Alpha  occ. eigenvalues -- -485.36978 -63.35451 -57.17394 -57.17163 -57.17156
 Alpha  occ. eigenvalues --  -14.79723 -10.59722 -10.58349 -10.58023 -10.55064
 Alpha  occ. eigenvalues --  -10.54856 -10.54598 -10.54416 -10.53325  -9.02089
 Alpha  occ. eigenvalues --   -6.84485  -6.83629  -6.83607  -2.87862  -2.87552
 Alpha  occ. eigenvalues --   -2.87526  -2.86729  -2.86728  -1.09587  -0.96364
 Alpha  occ. eigenvalues --   -0.89874  -0.87228  -0.83079  -0.80043  -0.70890
 Alpha  occ. eigenvalues --   -0.68524  -0.66845  -0.60613  -0.55835  -0.55165
 Alpha  occ. eigenvalues --   -0.51429  -0.50898  -0.48848  -0.48099  -0.46068
 Alpha  occ. eigenvalues --   -0.43197  -0.42971  -0.39867  -0.37520  -0.34610
 Alpha  occ. eigenvalues --   -0.32950  -0.28520  -0.26179
 Alpha virt. eigenvalues --    0.00245   0.03996   0.04528   0.06840   0.08817
 Alpha virt. eigenvalues --    0.10109   0.11140   0.11952   0.13256   0.13746
 Alpha virt. eigenvalues --    0.15134   0.17728   0.19173   0.19490   0.21101

 Mulliken charges:
               1
     1  Br  -0.119321
     2  C   -0.066529
     3  C   -0.189574
     4  C   -0.155504
     5  C   -0.253411
     6  C    0.113771
     7  N   -0.307749
     8  C   -0.036409
     9  C   -0.299522
    10  C    0.190194
    11  H    0.169607
    12  H    0.161772
    13  H    0.167765
    14  H    0.270080
    15  H    0.184294
    16  H    0.170536
 Sum of Mulliken charges =  -0.00000

 Dipole moment (field-independent basis, Debye):
    X=             -4.5731    Y=             -0.1683    Z=             -0.0002  Tot=              4.5762
 Quadrupole moment (field-independent basis, Debye-Ang):
   XX=            -54.0491   YY=            -61.8957   ZZ=            -76.1014
   XY=              3.1176   XZ=              0.0010   YZ=              0.0004

 Normal termination of Gaussian 16 at Tue Sep 17 10:28:55 2024.
