 Gaussian 16, Revision C.02,

 ----------------------------------------------------------------------
 #p B3LYP/6-31G(d,p) EmpiricalDispersion=GD3BJ opt freq scf(xqc,tight)
 integral(grid=ultrafine)
 ----------------------------------------------------------------------

 ----------------------------------
 opt-freq conformers_unique/conf_ab
 ----------------------------------
 Symbolic Z-matrix:
 Charge =  0 Multiplicity = 1

 SCF Done:  E(RB3LYP) =  -3128.16038525     A.U. after   15 cycles
 SCF Done:  E(RB3LYP) =  -3128.16265324     A.U. after   12 cycles
 SCF Done:  E(RB3LYP) =  -3128.16308633     A.U. after   12 cycles
 SCF Done:  E(RB3LYP) =  -3128.16342679     A.U. after   13 cycles
 SCF Done:  E(RB3LYP) =  -3128.16367237     A.U. after   12 cycles
 SCF Done:  E(RB3LYP) =  -3128.16382499     A.U. after   11 cycles
 SCF Done:  E(RB3LYP) =  -3128.16389093     A.U. after   11 cycles
 SCF Done:  E(RB3LYP) =  -3128.16391229     A.U. after   11 cycles
 SCF Done:  E(RB3LYP) =  -3128.16391738     A.U. after   10 cycles
 SCF Done:  E(RB3LYP) =  -3128.16393555     A.U. after   10 cycles
 SCF Done:  E(RB3LYP) =  -3128.16394835     A.U. after   11 cycles
 SCF Done:  E(RB3LYP) =  -3128.16395765     A.U. after   10 cycles
 SCF Done:  E(RB3LYP) =  -3128.16397078     A.U. after   10 cycles
 SCF Done:  E(RB3LYP) =  -3128.16397519     A.U. after    9 cycles
 SCF Done:  E(RB3LYP) =  -3128.16397574     A.U. after    8 cycles
 Optimization completed.
    -- Stationary point found.
 Normal termination of Gaussian 16 at Tue Sep 17 10:02:12 2024.

 ----------------------------------------------------------------------
 #P Geom=AllCheck Guess=TCheck SCRF=Check GenChk RB3LYP/6-31G(d,p) Freq
 ----------------------------------------------------------------------

 Structure from the checkpoint file:  "smiles_00050_conf_1.chk"
 ----------------------------------
 opt-freq conformers_unique/conf_ab
 ----------------------------------
 Charge =  0 Multiplicity = 1

 SCF Done:  E(RB3LYP) =  -3128.16397574     A.U. after    1 cycles

                      1                      2                      3
                      A                      A                      A
 Frequencies --     40.1865                40.9713                65.0208
 Red. masses --      4.3360                 2.7317                 3.9610
 Frc consts  --      0.0041                 0.0027                 0.0099
 IR Inten    --      2.5552                 0.0182                 1.2055

                      4                      5                      6
                      A                      A                      A
 Frequencies --     66.5970               140.9597               186.4053
 Red. masses --      4.5846                 6.6903                 4.7355
 Frc consts  --      0.0120                 0.0783                 0.0969
 IR Inten    --      1.1198                 0.8982                 0.7573

                      7                      8                      9
                      A                      A                      A
 Frequencies --    203.8181               239.2113               266.3101
 Red. masses --      2.4503                 4.6404                 2.4408
 Frc consts  --      0.0600                 0.1564                 0.1020
 IR Inten    --      2.8779                 1.1258                 0.3839

                     10                     11                     12
                      A                      A                      A
 Frequencies --    297.1547               319.1387               334.4852
 Red. masses --      8.8155                 4.0629                 5.1335
 Frc consts  --      0.4586                 0.2438                 0.3384
 IR Inten    --      2.1680                11.1244                 0.8929

                     13                     14                     15
                      A                      A                      A
 Frequencies --    406.7430               450.7138               504.7989
 Red. masses --      5.7230                 3.4705                 5.5132
 Frc consts  --      0.5578                 0.4154                 0.8277
 IR Inten    --      9.9342                 3.4511                 0.2919

                     16                     17                     18
                      A                      A                      A
 Frequencies --    572.9023               616.9351               663.4546
 Red. masses --      1.9669                 4.7619                 6.6952
 Frc consts  --      0.3804                 1.0678                 1.7364
 IR Inten    --      1.8960                 3.1039                 5.7172

                     19                     20                     21
                      A                      A                      A
 Frequencies --    696.7166               715.5509               754.7524
 Red. masses --      3.9794                 2.9880                 2.9057
 Frc consts  --      1.1381                 0.9014                 0.9752
 IR Inten    --     18.3278                29.3616                24.9309

                     22                     23                     24
                      A                      A                      A
 Frequencies --    782.6029               820.0075               863.4546
 Red. masses --      3.4893                 1.7242                 1.8168
 Frc consts  --      1.2591                 0.6831                 0.7981
 IR Inten    --      9.4808                16.2878                 5.6105

                     25                     26                     27
                      A                      A                      A
 Frequencies --    886.2952               919.1411               928.6347
 Red. masses --      1.9966                 1.9085                 2.1696
 Frc consts  --      0.9240                 0.9500                 1.1024
 IR Inten    --      4.3808                12.4163                 1.9908

                     28                     29                     30
                      A                      A                      A
 Frequencies --    932.1785               939.0272               942.6201
 Red. masses --      1.6181                 1.5151                 1.9853
 Frc consts  --      0.8284                 0.7871                 1.0393
 IR Inten    --      3.2172                 0.9825                 4.0892

                     31                     32                     33
                      A                      A                      A
 Frequencies --    994.1988               995.9513              1017.8135
 Red. masses --      1.3271                 1.7129                 5.7218
 Frc consts  --      0.7728                 1.0011                 3.4923
 IR Inten    --      1.0726                 3.5542                 6.1535

                     34                     35                     36
                      A                      A                      A
 Frequencies --   1049.9143              1097.4175              1122.0449
 Red. masses --      1.9018                 2.2217                 1.5592
 Frc consts  --      1.2352                 1.5764                 1.1565
 IR Inten    --      1.8825                17.6251                10.6922

                     37                     38                     39
                      A                      A                      A
 Frequencies --   1141.8965              1167.7317              1191.7760
 Red. masses --      1.6829                 1.8895                 2.5422
 Frc consts  --      1.2929                 1.5180                 2.1274
 IR Inten    --      5.9712                14.3817                 5.7744

                     40                     41                     42
                      A                      A                      A
 Frequencies --   1196.3409              1204.8501              1228.9883
 Red. masses --      1.1401                 1.6491                 2.0250
 Frc consts  --      0.9614                 1.4105                 1.8020
 IR Inten    --      1.9837                 9.0341                34.1007

                     43                     44                     45
                      A                      A                      A
 Frequencies --   1263.8374              1285.9348              1313.5323
 Red. masses --      1.2330                 1.3428                 1.5243
 Frc consts  --      1.1604                 1.3083                 1.5495
 IR Inten    --     22.7164                42.6926                 5.5841

                     46                     47                     48
                      A                      A                      A
 Frequencies --   1328.8863              1354.3241              1359.8275
 Red. masses --      1.3426                 4.1037                 1.2695
 Frc consts  --      1.3969                 4.4347                 1.3830
 IR Inten    --      0.2323                 0.7052                 2.8418

                     49                     50                     51
                      A                      A                      A
 Frequencies --   1371.8509              1384.4152              1423.8937
 Red. masses --      1.5021                 1.4215                 5.3618
 Frc consts  --      1.6656                 1.6052                 6.4050
 IR Inten    --     20.6738                 8.1328               416.0535

                     52                     53                     54
                      A                      A                      A
 Frequencies --   1453.8963              1504.4745              1511.6876
 Red. masses --      2.9298                 1.0896                 1.1251
 Frc consts  --      3.6489                 1.4531                 1.5148
 IR Inten    --     12.6236                 3.5526                 7.6118

                     55                     56                     57
                      A                      A                      A
 Frequencies --   1517.9864              1531.4149              1542.6091
 Red. masses --      2.3248                 1.0836                 1.1111
 Frc consts  --      3.1562                 1.4973                 1.5579
 IR Inten    --     16.1900                 2.3111                 5.4705

                     58                     59                     60
                      A                      A                      A
 Frequencies --   1621.3349              1650.7123              1738.5589
 Red. masses --      6.0876                 6.1730                11.6808
 Frc consts  --      9.4285                 9.9104                20.8018
 IR Inten    --     46.7798                 0.4538               264.6529

                     61                     62                     63
                      A                      A                      A
 Frequencies --   3035.2897              3050.5825              3059.0032
 Red. masses --      1.0726                 1.0667                 1.0681
 Frc consts  --      5.8220                 5.8486                 5.8887
 IR Inten    --     48.3729                23.3169                20.7508

                     64                     65                     66
                      A                      A                      A
 Frequencies --   3064.2112              3107.2174              3118.9887
 Red. masses --      1.0618                 1.0977                 1.0995
 Frc consts  --      5.8738                 6.2442                 6.3018
 IR Inten    --     27.6176                23.2920                29.7318

                     67                     68                     69
                      A                      A                      A
 Frequencies --   3126.5267              3145.3857              3196.6416
 Red. masses --      1.1047                 1.0943                 1.0881
 Frc consts  --      6.3626                 6.3785                 6.5512
 IR Inten    --     39.2553                 6.3077                 8.0815

                     70                     71                     72
                      A                      A                      A
 Frequencies --   3221.7014              3225.8011              3227.6291
 Red. masses --      1.0917                 1.0954                 1.0918
 Frc consts  --      6.6759                 6.7158                 6.7012
 IR Inten    --      0.8022                 6.4306                 0.2103

 - Thermochemistry -
 -------------------
 Temperature   298.150 Kelvin.  Pressure   1.00000 Atm.
 Atom     1 has atomic number  8 and mass  15.99491

 Molecular mass:   253.01023 amu.
 Principal axes and moments of inertia in atomic units:
                           1         2         3
     Eigenvalues --  1995.685637002.999888349.01503
           X            0.99878   0.04925  -0.00209
           Y           -0.04925   0.99879  -0.00075
           Z            0.00205   0.00086   1.00000
 This molecule is an asymmetric top.
 Rotational symmetry number  1.
 Warning -- assumption of classical behavior for rotation
           may cause significant error
 Rotational temperatures (Kelvin)      0.04340     0.01237     0.01037
 Rotational constants (GHZ):           0.90432     0.25771     0.21616
 Zero-point vibrational energy     554731.5 (Joules/Mol)
                                  132.58401 (Kcal/Mol)
 Warning -- explicit consideration of  17 degrees of freedom as
           vibrations may cause significant error
 Vibrational temperatures:     57.82    58.95    93.55    95.82   202.81
          (Kelvin)            268.20   293.25   344.17   383.16   427.54
                              459.17   481.25   585.21   648.48   726.29
                              824.28   887.63   954.56  1002.42  1029.52
                             1085.92  1125.99  1179.81  1242.32  1275.18
                             1322.44  1336.10  1341.20  1351.05  1356.22
                             1430.43  1432.95  1464.41  1510.59  1578.94
                             1614.37  1642.93  1680.11  1714.70  1721.27
                             1733.51  1768.24  1818.38  1850.17  1889.88
                             1911.97  1948.57  1956.49  1973.79  1991.86
                             2048.67  2091.83  2164.60  2174.98  2184.04
                             2203.36  2219.47  2332.74  2375.01  2501.40
                             4367.10  4389.11  4401.22  4408.72  4470.59
                             4487.53  4498.37  4525.51  4599.25  4635.31
                             4641.21  4643.84

 Zero-point correction=                           0.211286 (Hartree/Particle)
 Thermal correction to Energy=                    0.223878
 Thermal correction to Enthalpy=                  0.224822
 Thermal correction to Gibbs Free Energy=         0.169683
 Sum of electronic and zero-point Energies=          -3127.952690
 Sum of electronic and thermal Energies=             -3127.940098
 Sum of electronic and thermal Enthalpies=           -3127.939154
 Sum of electronic and thermal Free Energies=        -3127.994293

                     E (Thermal)             CV                S
                      KCal/Mol        Cal/Mol-Kelvin    Cal/Mol-Kelvin
 Total                  140.486             46.970            116.050
 Electronic               0.000              0.000              0.000
 Translational            0.889              2.981             42.485
 Rotational               0.889              2.981             33.123
 Vibrational            138.708             41.008             40.442
 Vibration     1          0.594              1.981              5.250
 Vibration     2          0.594              1.981              5.212
 Vibration     3          0.597              1.971              4.299
 Vibration     4          0.598              1.970              4.251
 Vibration     5          0.615              1.912              2.791
 Vibration     6          0.632              1.858              2.263
 Vibration     7          0.639              1.834              2.098
 Vibration     8          0.657              1.780              1.809
 Vibration     9          0.672              1.735              1.620
 Vibration    10          0.691              1.679              1.433
 Vibration    11          0.705              1.637              1.315
 Vibration    12          0.716              1.607              1.238
 Vibration    13          0.772              1.456              0.938
 Vibration    14          0.809              1.359              0.794
 Vibration    15          0.860              1.239              0.646
 Vibration    16          0.929              1.090              0.499
 Vibration    17          0.977              0.996              0.421

 Optimization completed.
    -- Stationary point found.
 Normal termination of Gaussian 16 at Tue Sep 17 10:05:19 2024.

 ----------------------------------------------------------------------
 #p M062X/def2tzvp geom=check guess=read scf(xqc,tight) integral(grid=u
 ltrafine) scrf(SMD, solvent=1,4-Dioxane) polar prop=efg volume
 ----------------------------------------------------------------------

 ---
 spe
 ---
 Structure from the checkpoint file:  "smiles_00050_conf_1.chk"
 Charge =  0 Multiplicity = 1

 SCF Done:  E(RM062X) =  -3130.56363773     A.U. after   13 cycles

  Exact polarizability:     218.122      -5.113     188.072     -10.878      -9.867     125.772
 Approx polarizability:     212.989     -14.166     211.482     -12.943     -13.409     151.586

 Normal termination of Gaussian 16 at Tue Sep 17 11:23:59 2024.
 Gaussian 16:  ES64L-G16RevC.02  7-Dec-2021

 ----------------------------------------------------------------------
 #p M062X/def2tzvp geom=check guess=read scf(xqc,tight) integral(grid=u
 ltrafine) scrf(SMD, solvent=1,4-Dioxane) nmr=giao
 ----------------------------------------------------------------------

 ---
 spe
 ---
 Structure from the checkpoint file:  "smiles_00050_conf_1.chk"
 Charge =  0 Multiplicity = 1

                         Standard orientation:
 ---------------------------------------------------------------------
 Center     Atomic      Atomic             Coordinates (Angstroms)
 Number     Number       Type             X           Y           Z
 ---------------------------------------------------------------------
      1          8           0       -2.245664    1.981452    1.148565
      2          6           0       -1.725698    1.023619    0.578902
      3          6           0       -0.301805    1.117047    0.102797
      4          6           0        0.107863    2.308823   -0.505799
      5          6           0        1.426750    2.463790   -0.923589
      6          6           0        2.360361    1.447162   -0.714513
      7          6           0        1.947367    0.279407   -0.078769
      8         35           0        3.219290   -1.111682    0.244100
      9          6           0        0.629616    0.098675    0.329744
     10          7           0       -2.391370   -0.151924    0.356016
     11          6           0       -2.033546   -1.148745   -0.676998
     12          6           0       -3.319693   -1.971923   -0.858447
     13          6           0       -4.437838   -0.997922   -0.462878
     14          6           0       -3.818926   -0.234833    0.710061
     15          1           0       -0.617632    3.103878   -0.634211
     16          1           0        1.739279    3.383265   -1.408286
     17          1           0        3.390931    1.560459   -1.029292
     18          1           0        0.342930   -0.810962    0.841974
     19          1           0       -1.741568   -0.643234   -1.604517
     20          1           0       -1.196145   -1.777491   -0.367188
     21          1           0       -3.311932   -2.827011   -0.173790
     22          1           0       -3.415306   -2.360967   -1.875107
     23          1           0       -5.371166   -1.499805   -0.196221
     24          1           0       -4.647446   -0.306077   -1.286382
     25          1           0       -4.208694    0.773093    0.853768
     26          1           0       -3.940202   -0.785045    1.652064
 ---------------------------------------------------------------------

 SCF Done:  E(RM062X) =  -3130.56363773     A.U. after    1 cycles

      1  O    Isotropic =  -151.8224   Anisotropy =   680.6976

      2  C    Isotropic =    -6.2825   Anisotropy =   137.8527

      3  C    Isotropic =    21.0720   Anisotropy =   201.7100

      4  C    Isotropic =    34.1470   Anisotropy =   220.1117

      5  C    Isotropic =    33.1055   Anisotropy =   214.8351

      6  C    Isotropic =    29.1495   Anisotropy =   189.3499

      7  C    Isotropic =    26.2940   Anisotropy =   140.4018

      8  Br   Isotropic =  2074.0986   Anisotropy =  1316.8707

      9  C    Isotropic =    31.9038   Anisotropy =   182.7023

     10  N    Isotropic =   104.4307   Anisotropy =   184.1724

     11  C    Isotropic =   132.6769   Anisotropy =    42.0334

     12  C    Isotropic =   155.9513   Anisotropy =    24.5753

     13  C    Isotropic =   158.5426   Anisotropy =    16.7025

     14  C    Isotropic =   136.0660   Anisotropy =    45.3657

     15  H    Isotropic =    23.3975   Anisotropy =     8.3550

     16  H    Isotropic =    23.6402   Anisotropy =     5.7920

     17  H    Isotropic =    23.5728   Anisotropy =    10.1686

     18  H    Isotropic =    23.4251   Anisotropy =    13.8602

     19  H    Isotropic =    28.8533   Anisotropy =     5.1300

     20  H    Isotropic =    27.9544   Anisotropy =     9.5117

     21  H    Isotropic =    29.8597   Anisotropy =     9.8360

     22  H    Isotropic =    29.8627   Anisotropy =    10.3208

     23  H    Isotropic =    30.0553   Anisotropy =    11.2259

     24  H    Isotropic =    30.3266   Anisotropy =    10.1108

     25  H    Isotropic =    27.1599   Anisotropy =     6.8396

     26  H    Isotropic =    28.8343   Anisotropy =    10.0325

 The electronic state is 1-A.
 Alpha  occ. eigenvalues -- -485.37846 -63.36324 -57.18269 -57.18033 -57.18027
 Alpha  occ. eigenvalues --  -19.59200 -14.77432 -10.64520 -10.60879 -10.57492
 Alpha  occ. eigenvalues --  -10.56689 -10.56435 -10.56427 -10.56183 -10.55743
 Alpha  occ. eigenvalues --  -10.55501 -10.54119 -10.53811  -9.02967  -6.85373
 Alpha  occ. eigenvalues --   -6.84498  -6.84480  -2.88749  -2.88433  -2.88410
 Alpha  occ. eigenvalues --   -2.87595  -2.87595  -1.15787  -1.04972  -0.98654
 Alpha  occ. eigenvalues --   -0.90748  -0.89208  -0.86458  -0.83130  -0.82243
 Alpha  occ. eigenvalues --   -0.74996  -0.70750  -0.68929  -0.67264  -0.62739
 Alpha  occ. eigenvalues --   -0.60830  -0.57603  -0.57389  -0.54152  -0.52846
 Alpha  occ. eigenvalues --   -0.51137  -0.50359  -0.49839  -0.48507  -0.47278
 Alpha  occ. eigenvalues --   -0.46886  -0.45866  -0.43627  -0.42838  -0.41464
 Alpha  occ. eigenvalues --   -0.41182  -0.40866  -0.39420  -0.38200  -0.35630
 Alpha  occ. eigenvalues --   -0.33725  -0.32062  -0.30304  -0.30132
 Alpha virt. eigenvalues --   -0.01237   0.00516   0.03201   0.06188   0.07147
 Alpha virt. eigenvalues --    0.09668   0.09766   0.10516   0.11246   0.12290
 Alpha virt. eigenvalues --    0.12657   0.13368   0.13932   0.14284   0.14764

 Mulliken charges:
               1
     1  O   -0.417445
     2  C    0.272434
     3  C    0.071418
     4  C   -0.195957
     5  C   -0.144472
     6  C   -0.169199
     7  C    0.071577
     8  Br  -0.111383
     9  C   -0.242005
    10  N   -0.156539
    11  C   -0.214081
    12  C   -0.295392
    13  C   -0.275844
    14  C   -0.215589
    15  H    0.178166
    16  H    0.169399
    17  H    0.181067
    18  H    0.214984
    19  H    0.179099
    20  H    0.148198
    21  H    0.158221
    22  H    0.156124
    23  H    0.152329
    24  H    0.155357
    25  H    0.175583
    26  H    0.153951
 Sum of Mulliken charges =  -0.00000

 Dipole moment (field-independent basis, Debye):
    X=             -1.1171    Y=             -2.2737    Z=             -2.9100  Tot=              3.8582
 Quadrupole moment (field-independent basis, Debye-Ang):
   XX=            -89.9669   YY=            -94.6753   ZZ=            -97.7870
   XY=             14.2031   XZ=              2.9101   YZ=             -7.8876

 Normal termination of Gaussian 16 at Tue Sep 17 11:51:53 2024.
