 Gaussian 16, Revision C.02,

 ----------------------------------------------------------------------
 #p B3LYP/6-31G(d,p) EmpiricalDispersion=GD3BJ opt freq scf(xqc,tight)
 integral(grid=ultrafine)
 ----------------------------------------------------------------------

 ----------------------------------
 opt-freq conformers_unique/conf_ae
 ----------------------------------
 Symbolic Z-matrix:
 Charge =  0 Multiplicity = 1

 SCF Done:  E(RB3LYP) =  -3233.09066858     A.U. after   14 cycles
 SCF Done:  E(RB3LYP) =  -3233.09220748     A.U. after   12 cycles
 SCF Done:  E(RB3LYP) =  -3233.09260084     A.U. after   11 cycles
 SCF Done:  E(RB3LYP) =  -3233.09279167     A.U. after   11 cycles
 SCF Done:  E(RB3LYP) =  -3233.09280864     A.U. after    9 cycles
 SCF Done:  E(RB3LYP) =  -3233.09281084     A.U. after    9 cycles
 SCF Done:  E(RB3LYP) =  -3233.09281137     A.U. after    7 cycles
 Optimization completed.
    -- Stationary point found.
 Normal termination of Gaussian 16 at Tue Sep 17 09:47:58 2024.

 ----------------------------------------------------------------------
 #P Geom=AllCheck Guess=TCheck SCRF=Check GenChk RB3LYP/6-31G(d,p) Freq
 ----------------------------------------------------------------------

 Structure from the checkpoint file:  "smiles_00060_conf_4.chk"
 ----------------------------------
 opt-freq conformers_unique/conf_ae
 ----------------------------------
 Charge =  0 Multiplicity = 1

 SCF Done:  E(RB3LYP) =  -3233.09281137     A.U. after    1 cycles

                      1                      2                      3
                      A                      A                      A
 Frequencies --     30.7909                58.8595                65.1137
 Red. masses --      4.8895                 2.9789                 4.7283
 Frc consts  --      0.0027                 0.0061                 0.0118
 IR Inten    --      0.0658                 0.3116                 0.4288

                      4                      5                      6
                      A                      A                      A
 Frequencies --    117.2282               165.4450               166.1125
 Red. masses --     14.0762                 3.3210                 6.6732
 Frc consts  --      0.1140                 0.0536                 0.1085
 IR Inten    --      0.0362                 0.0308                 0.0085

                      7                      8                      9
                      A                      A                      A
 Frequencies --    217.9367               239.5579               254.0651
 Red. masses --      4.2543                 7.7293                 5.4827
 Frc consts  --      0.1191                 0.2613                 0.2085
 IR Inten    --      0.3963                 0.1277                 0.3428

                     10                     11                     12
                      A                      A                      A
 Frequencies --    285.2303               334.0110               374.7732
 Red. masses --     14.0404                 6.1275                 6.8031
 Frc consts  --      0.6730                 0.4028                 0.5630
 IR Inten    --      0.1500                 0.1121                 1.2748

                     13                     14                     15
                      A                      A                      A
 Frequencies --    410.9116               443.4711               512.3765
 Red. masses --      7.3063                 4.2102                 4.1485
 Frc consts  --      0.7269                 0.4878                 0.6417
 IR Inten    --      6.4449                 1.9347                 2.9962

                     16                     17                     18
                      A                      A                      A
 Frequencies --    536.6998               553.3046               603.6188
 Red. masses --      5.4949                 5.0172                 3.1421
 Frc consts  --      0.9326                 0.9050                 0.6745
 IR Inten    --      3.1498                 3.9697                 4.0439

                     19                     20                     21
                      A                      A                      A
 Frequencies --    625.2385               687.5171               712.4151
 Red. masses --      6.2516                10.7508                 3.0015
 Frc consts  --      1.4399                 2.9940                 0.8975
 IR Inten    --      0.3826                 0.3673                 2.8322

                     22                     23                     24
                      A                      A                      A
 Frequencies --    754.4100               794.6505               798.3937
 Red. masses --      1.7464                 3.3962                 1.1965
 Frc consts  --      0.5856                 1.2636                 0.4494
 IR Inten    --      7.8312                45.4474                 0.2667

                     25                     26                     27
                      A                      A                      A
 Frequencies --    863.9347               869.4481               891.8374
 Red. masses --      5.0031                 1.6383                 1.4540
 Frc consts  --      2.2002                 0.7297                 0.6814
 IR Inten    --     43.0222                27.4770                 9.7745

                     28                     29                     30
                      A                      A                      A
 Frequencies --    918.8107               920.9837               960.5135
 Red. masses --      2.0153                 2.6348                 1.2910
 Frc consts  --      1.0024                 1.3167                 0.7018
 IR Inten    --      2.2294                 0.1552                 5.2512

                     31                     32                     33
                      A                      A                      A
 Frequencies --    968.2989              1018.6154              1051.6864
 Red. masses --      3.8174                 3.2809                 1.9313
 Frc consts  --      2.1088                 2.0057                 1.2586
 IR Inten    --     43.5818                37.2304                 3.7992

                     34                     35                     36
                      A                      A                      A
 Frequencies --   1097.1907              1155.3431              1172.6544
 Red. masses --      2.9995                 2.4653                 2.6630
 Frc consts  --      2.1274                 1.9389                 2.1575
 IR Inten    --     93.0351                75.3490               119.7912

                     37                     38                     39
                      A                      A                      A
 Frequencies --   1195.6973              1205.7349              1258.1155
 Red. masses --      1.3577                 1.5504                 1.3684
 Frc consts  --      1.1437                 1.3280                 1.2761
 IR Inten    --      1.8694                42.8770                 2.6760

                     40                     41                     42
                      A                      A                      A
 Frequencies --   1259.6439              1262.3585              1263.6978
 Red. masses --      1.3121                 2.0467                 1.4372
 Frc consts  --      1.2266                 1.9217                 1.3522
 IR Inten    --      5.3981                25.5326                10.1510

                     43                     44                     45
                      A                      A                      A
 Frequencies --   1287.3404              1309.8498              1335.2931
 Red. masses --      1.5467                 1.4155                10.8102
 Frc consts  --      1.5102                 1.4309                11.3563
 IR Inten    --     56.4431                 0.0434                 5.5298

                     46                     47                     48
                      A                      A                      A
 Frequencies --   1347.3473              1417.7737              1468.4714
 Red. masses --      4.0213                 1.3979                 5.3666
 Frc consts  --      4.3011                 1.6556                 6.8184
 IR Inten    --     36.2904                19.1772                33.4899

                     49                     50                     51
                      A                      A                      A
 Frequencies --   1492.4289              1503.9566              1529.0631
 Red. masses --      1.0966                 1.0843                 1.1453
 Frc consts  --      1.4390                 1.4450                 1.5777
 IR Inten    --      1.2104                 1.3963                 7.8659

                     52                     53                     54
                      A                      A                      A
 Frequencies --   1537.8589              1637.6454              1659.4820
 Red. masses --      5.3405                 9.3883                 8.3234
 Frc consts  --      7.4415                14.8346                13.5051
 IR Inten    --    306.5995               108.4152                38.9032

                     55                     56                     57
                      A                      A                      A
 Frequencies --   3076.9729              3079.3167              3082.9123
 Red. masses --      1.0570                 1.0573                 1.0625
 Frc consts  --      5.8963                 5.9069                 5.9500
 IR Inten    --     36.4366                20.8652                16.6518

                     58                     59                     60
                      A                      A                      A
 Frequencies --   3101.9336              3129.7534              3135.0287
 Red. masses --      1.0894                 1.1070                 1.1093
 Frc consts  --      6.1758                 6.3890                 6.4237
 IR Inten    --     17.4353                14.1853                19.5641

                     61                     62                     63
                      A                      A                      A
 Frequencies --   3147.3331              3239.9219              3240.1755
 Red. masses --      1.1075                 1.0926                 1.0924
 Frc consts  --      6.4635                 6.7576                 6.7575
 IR Inten    --     65.0877                 0.3048                 1.2672

 - Thermochemistry -
 -------------------
 Temperature   298.150 Kelvin.  Pressure   1.00000 Atm.
 Atom     1 has atomic number  9 and mass  18.99840

 Molecular mass:   261.98048 amu.
 Principal axes and moments of inertia in atomic units:
                           1         2         3
     Eigenvalues --  2522.885175811.440557556.15122
           X            0.99893  -0.04419   0.01399
           Y            0.04434   0.99896  -0.01036
           Z           -0.01351   0.01096   0.99985
 This molecule is an asymmetric top.
 Rotational symmetry number  1.
 Warning -- assumption of classical behavior for rotation
           may cause significant error
 Rotational temperatures (Kelvin)      0.03433     0.01490     0.01146
 Rotational constants (GHZ):           0.71535     0.31055     0.23884
 Zero-point vibrational energy     447622.0 (Joules/Mol)
                                  106.98423 (Kcal/Mol)
 Warning -- explicit consideration of  18 degrees of freedom as
           vibrations may cause significant error
 Vibrational temperatures:     44.30    84.69    93.68   168.67   238.04
          (Kelvin)            239.00   313.56   344.67   365.54   410.38
                              480.57   539.22   591.21   638.06   737.20
                              772.19   796.08   868.47   899.58   989.18
                             1025.01  1085.43  1143.32  1148.71  1243.01
                             1250.94  1283.16  1321.96  1325.09  1381.96
                             1393.17  1465.56  1513.14  1578.61  1662.28
                             1687.19  1720.34  1734.78  1810.15  1812.35
                             1816.25  1818.18  1852.20  1884.58  1921.19
                             1938.53  2039.86  2112.80  2147.27  2163.86
                             2199.98  2212.64  2356.21  2387.62  4427.08
                             4430.45  4435.62  4462.99  4503.02  4510.61
                             4528.31  4661.52  4661.89

 Zero-point correction=                           0.170490 (Hartree/Particle)
 Thermal correction to Energy=                    0.183027
 Thermal correction to Enthalpy=                  0.183971
 Thermal correction to Gibbs Free Energy=         0.129382
 Sum of electronic and zero-point Energies=          -3232.922321
 Sum of electronic and thermal Energies=             -3232.909784
 Sum of electronic and thermal Enthalpies=           -3232.908840
 Sum of electronic and thermal Free Energies=        -3232.963430

                     E (Thermal)             CV                S
                      KCal/Mol        Cal/Mol-Kelvin    Cal/Mol-Kelvin
 Total                  114.851             46.831            114.894
 Electronic               0.000              0.000              0.000
 Translational            0.889              2.981             42.589
 Rotational               0.889              2.981             33.071
 Vibrational            113.074             40.869             39.234
 Vibration     1          0.594              1.984              5.778
 Vibration     2          0.596              1.974              4.495
 Vibration     3          0.597              1.971              4.296
 Vibration     4          0.608              1.935              3.146
 Vibration     5          0.624              1.885              2.487
 Vibration     6          0.624              1.884              2.479
 Vibration     7          0.646              1.814              1.976
 Vibration     8          0.657              1.780              1.806
 Vibration     9          0.665              1.756              1.702
 Vibration    10          0.683              1.701              1.502
 Vibration    11          0.716              1.608              1.241
 Vibration    12          0.746              1.524              1.060
 Vibration    13          0.775              1.447              0.923
 Vibration    14          0.803              1.375              0.816
 Vibration    15          0.867              1.223              0.628
 Vibration    16          0.892              1.169              0.572
 Vibration    17          0.909              1.132              0.537
 Vibration    18          0.962              1.024              0.443

 Optimization completed.
    -- Stationary point found.
 Normal termination of Gaussian 16 at Tue Sep 17 09:51:13 2024.

 ----------------------------------------------------------------------
 #p M062X/def2tzvp geom=check guess=read scf(xqc,tight) integral(grid=u
 ltrafine) scrf(SMD, solvent=1,4-Dioxane) polar prop=efg volume
 ----------------------------------------------------------------------

 ---
 spe
 ---
 Structure from the checkpoint file:  "smiles_00060_conf_4.chk"
 Charge =  0 Multiplicity = 1

 SCF Done:  E(RM062X) =  -3235.54156285     A.U. after   11 cycles

  Exact polarizability:     189.542      10.386     164.769      -9.593       3.140     109.479
 Approx polarizability:     191.788      11.029     186.762     -17.493       7.170     132.927

 Normal termination of Gaussian 16 at Tue Sep 17 11:06:50 2024.
 Gaussian 16:  ES64L-G16RevC.02  7-Dec-2021

 ----------------------------------------------------------------------
 #p M062X/def2tzvp geom=check guess=read scf(xqc,tight) integral(grid=u
 ltrafine) scrf(SMD, solvent=1,4-Dioxane) nmr=giao
 ----------------------------------------------------------------------

 ---
 spe
 ---
 Structure from the checkpoint file:  "smiles_00060_conf_4.chk"
 Charge =  0 Multiplicity = 1

                         Standard orientation:
 ---------------------------------------------------------------------
 Center     Atomic      Atomic             Coordinates (Angstroms)
 Number     Number       Type             X           Y           Z
 ---------------------------------------------------------------------
      1          9           0       -0.601079    3.357538    0.306839
      2          6           0       -0.390970    2.074579   -0.027211
      3          6           0        0.831198    1.678925   -0.547993
      4          6           0        1.019401    0.334940   -0.887981
      5          8           0        2.201054   -0.061322   -1.457734
      6          6           0        3.235501   -0.526538   -0.582558
      7          6           0        2.985376   -1.680399    0.413114
      8          6           0        4.005877   -0.982807    1.353653
      9          6           0        3.744301    0.343026    0.587950
     10          6           0       -0.011338   -0.591396   -0.712362
     11          6           0       -1.230475   -0.170005   -0.184690
     12         35           0       -2.649088   -1.403880    0.068581
     13          6           0       -1.428632    1.162474    0.163566
     14          9           0       -2.591785    1.588459    0.670244
     15          1           0        1.619460    2.405313   -0.699907
     16          1           0        4.053003   -0.774536   -1.263516
     17          1           0        1.977266   -1.627336    0.832810
     18          1           0        3.182464   -2.700648    0.075316
     19          1           0        5.023482   -1.350704    1.197143
     20          1           0        3.787441   -0.993405    2.423026
     21          1           0        2.924254    0.898915    1.050590
     22          1           0        4.578634    1.022364    0.397390
     23          1           0        0.137965   -1.624370   -0.997973
 ---------------------------------------------------------------------

 SCF Done:  E(RM062X) =  -3235.54156285     A.U. after    1 cycles

      1  F    Isotropic =   313.0495   Anisotropy =   148.2697

      2  C    Isotropic =    12.8456   Anisotropy =   115.3378

      3  C    Isotropic =    50.5439   Anisotropy =   155.3070

      4  C    Isotropic =    12.7782   Anisotropy =   157.8495

      5  O    Isotropic =   195.5083   Anisotropy =   114.5432

      6  C    Isotropic =   106.5941   Anisotropy =    81.2886

      7  C    Isotropic =   158.0348   Anisotropy =    27.0865

      8  C    Isotropic =   175.7311   Anisotropy =    13.0204

      9  C    Isotropic =   157.6771   Anisotropy =    27.0030

     10  C    Isotropic =    37.8610   Anisotropy =   152.9695

     11  C    Isotropic =    40.0404   Anisotropy =   132.4658

     12  Br   Isotropic =  2156.4353   Anisotropy =  1064.8339

     13  C    Isotropic =    19.2186   Anisotropy =   110.4211

     14  F    Isotropic =   316.0456   Anisotropy =   146.8079

     15  H    Isotropic =    24.4719   Anisotropy =     7.4475

     16  H    Isotropic =    27.1727   Anisotropy =     5.2327

     17  H    Isotropic =    29.9098   Anisotropy =     7.2388

     18  H    Isotropic =    29.9086   Anisotropy =    10.1424

     19  H    Isotropic =    30.6096   Anisotropy =    10.4096

     20  H    Isotropic =    30.5615   Anisotropy =    10.5385

     21  H    Isotropic =    29.9490   Anisotropy =     6.0737

     22  H    Isotropic =    29.9171   Anisotropy =    10.5368

     23  H    Isotropic =    24.3050   Anisotropy =    11.5583

 The electronic state is 1-A.
 Alpha  occ. eigenvalues -- -485.38943 -63.37409 -57.19367 -57.19115 -57.19104
 Alpha  occ. eigenvalues --  -25.27869 -25.27707 -19.65340 -10.65362 -10.65230
 Alpha  occ. eigenvalues --  -10.62298 -10.62195 -10.60058 -10.56723 -10.56630
 Alpha  occ. eigenvalues --  -10.54023 -10.53746 -10.53726  -9.04053  -6.86502
 Alpha  occ. eigenvalues --   -6.85568  -6.85530  -2.89879  -2.89545  -2.89504
 Alpha  occ. eigenvalues --   -2.88635  -2.88634  -1.40029  -1.38609  -1.18820
 Alpha  occ. eigenvalues --   -0.99898  -0.95292  -0.91761  -0.86677  -0.84015
 Alpha  occ. eigenvalues --   -0.76623  -0.75791  -0.73713  -0.70800  -0.66450
 Alpha  occ. eigenvalues --   -0.65309  -0.62798  -0.61719  -0.60469  -0.58777
 Alpha  occ. eigenvalues --   -0.57264  -0.57059  -0.55202  -0.53109  -0.51928
 Alpha  occ. eigenvalues --   -0.50828  -0.49494  -0.47075  -0.46216  -0.45610
 Alpha  occ. eigenvalues --   -0.45476  -0.43771  -0.40019  -0.39107  -0.38824
 Alpha  occ. eigenvalues --   -0.36786  -0.36411  -0.34466  -0.31521  -0.30489
 Alpha virt. eigenvalues --   -0.00358   0.01214   0.01952   0.06868   0.07847
 Alpha virt. eigenvalues --    0.09131   0.09157   0.10176   0.12456   0.13722
 Alpha virt. eigenvalues --    0.14250   0.14727   0.15267   0.16336   0.17193

 Mulliken charges:
               1
     1  F   -0.192605
     2  C    0.240510
     3  C   -0.265366
     4  C    0.179772
     5  O   -0.313412
     6  C   -0.026540
     7  C   -0.269788
     8  C   -0.281194
     9  C   -0.270779
    10  C   -0.231435
    11  C   -0.017966
    12  Br  -0.060385
    13  C    0.220628
    14  F   -0.184014
    15  H    0.203299
    16  H    0.146112
    17  H    0.160686
    18  H    0.148018
    19  H    0.153640
    20  H    0.141992
    21  H    0.159365
    22  H    0.147649
    23  H    0.211814
 Sum of Mulliken charges =   0.00000

 Dipole moment (field-independent basis, Debye):
    X=              3.6133    Y=             -1.4256    Z=              0.3931  Tot=              3.9042
 Quadrupole moment (field-independent basis, Debye-Ang):
   XX=            -88.4542   YY=            -94.2512   ZZ=            -96.1199
   XY=              2.0158   XZ=              2.8207   YZ=             -1.0303

 Normal termination of Gaussian 16 at Tue Sep 17 11:35:54 2024.
