 Gaussian 16, Revision C.02,

 ----------------------------------------------------------------------
 #p B3LYP/6-31G(d,p) EmpiricalDispersion=GD3BJ opt freq scf(xqc,tight)
 integral(grid=ultrafine)
 ----------------------------------------------------------------------

 ----------------------------------
 opt-freq conformers_unique/conf_aa
 ----------------------------------
 Symbolic Z-matrix:
 Charge =  0 Multiplicity = 1

 SCF Done:  E(RB3LYP) =  -861.569192922     A.U. after   15 cycles
 SCF Done:  E(RB3LYP) =  -861.570883915     A.U. after   12 cycles
 SCF Done:  E(RB3LYP) =  -861.570959897     A.U. after    9 cycles
 SCF Done:  E(RB3LYP) =  -861.570967433     A.U. after    8 cycles
 Optimization completed.
    -- Stationary point found.
 Normal termination of Gaussian 16 at Tue Sep 17 09:56:36 2024.

 ----------------------------------------------------------------------
 #P Geom=AllCheck Guess=TCheck SCRF=Check GenChk RB3LYP/6-31G(d,p) Freq
 ----------------------------------------------------------------------

 Structure from the checkpoint file:  "smiles_00021_conf_0.chk"
 ----------------------------------
 opt-freq conformers_unique/conf_aa
 ----------------------------------
 Charge =  0 Multiplicity = 1

 SCF Done:  E(RB3LYP) =  -861.570967433     A.U. after    1 cycles

                      1                      2                      3
                      A                      A                      A
 Frequencies --    115.7046               175.9023               210.1533
 Red. masses --      6.0660                 4.2550                10.9870
 Frc consts  --      0.0478                 0.0776                 0.2859
 IR Inten    --      0.7314                 3.2549                 0.7906

                      4                      5                      6
                      A                      A                      A
 Frequencies --    238.6446               399.3204               423.5147
 Red. masses --      4.1986                10.8565                 4.2510
 Frc consts  --      0.1409                 1.0200                 0.4492
 IR Inten    --      0.5452                 2.1759                 0.0095

                      7                      8                      9
                      A                      A                      A
 Frequencies --    442.4165               478.4794               540.0468
 Red. masses --      4.8297                 3.2678                 7.1107
 Frc consts  --      0.5570                 0.4408                 1.2219
 IR Inten    --      2.1776                 0.2111                 0.0743

                     10                     11                     12
                      A                      A                      A
 Frequencies --    556.7185               560.9935               640.0215
 Red. masses --      7.7911                 3.9788                 3.5201
 Frc consts  --      1.4227                 0.7378                 0.8496
 IR Inten    --      0.7540                 0.5088                 0.3199

                     13                     14                     15
                      A                      A                      A
 Frequencies --    673.7376               771.2580               804.8373
 Red. masses --      7.6240                 1.2580                 2.2572
 Frc consts  --      2.0390                 0.4409                 0.8614
 IR Inten    --     24.6785                11.2742                30.9829

                     16                     17                     18
                      A                      A                      A
 Frequencies --    824.7019               839.3218               853.9764
 Red. masses --      5.4730                 2.0991                 6.4348
 Frc consts  --      2.1932                 0.8712                 2.7649
 IR Inten    --      3.2787                29.8779                 7.9270

                     19                     20                     21
                      A                      A                      A
 Frequencies --    913.1610               969.2675               979.9034
 Red. masses --      1.3674                 1.3930                 1.2958
 Frc consts  --      0.6718                 0.7711                 0.7331
 IR Inten    --      0.0113                 0.1655                 0.5196

                     22                     23                     24
                      A                      A                      A
 Frequencies --    994.4960               998.2849              1061.9022
 Red. masses --      6.4118                 1.3417                 2.5570
 Frc consts  --      3.7362                 0.7878                 1.6988
 IR Inten    --     57.0100                 0.9435                 0.7093

                     25                     26                     27
                      A                      A                      A
 Frequencies --   1096.5923              1160.3803              1180.3560
 Red. masses --      2.0329                 1.3525                 1.3193
 Frc consts  --      1.4403                 1.0729                 1.0830
 IR Inten    --      8.1692                 0.5628                 3.6846

                     28                     29                     30
                      A                      A                      A
 Frequencies --   1235.4766              1249.1874              1277.8109
 Red. masses --      1.8288                 2.2892                 1.8222
 Frc consts  --      1.6447                 2.1047                 1.7530
 IR Inten    --     15.9130                 0.9873                 0.5698

                     31                     32                     33
                      A                      A                      A
 Frequencies --   1359.7206              1397.8041              1422.1979
 Red. masses --      3.7908                 4.4753                 2.0441
 Frc consts  --      4.1293                 5.1519                 2.4359
 IR Inten    --      8.5775                11.2546                19.9433

                     34                     35                     36
                      A                      A                      A
 Frequencies --   1466.9926              1503.6020              1543.8449
 Red. masses --      2.0830                 2.8393                 3.6794
 Frc consts  --      2.6411                 3.7820                 5.1670
 IR Inten    --      2.1435                22.4120                35.2295

                     37                     38                     39
                      A                      A                      A
 Frequencies --   1609.5140              1655.3235              1667.6076
 Red. masses --      7.0653                 5.4408                 6.5494
 Frc consts  --     10.7838                 8.7837                10.7309
 IR Inten    --      2.6410                14.0444                 8.1703

                     40                     41                     42
                      A                      A                      A
 Frequencies --   3160.3042              3184.7386              3187.3707
 Red. masses --      1.0897                 1.0889                 1.0878
 Frc consts  --      6.4121                 6.5071                 6.5113
 IR Inten    --     25.3874                 2.3786                 7.1965

                     43                     44                     45
                      A                      A                      A
 Frequencies --   3205.0940              3213.0377              3221.7127
 Red. masses --      1.0933                 1.0965                 1.0947
 Frc consts  --      6.6171                 6.6694                 6.6946
 IR Inten    --     16.9040                18.2383                 4.5303

 - Thermochemistry -
 -------------------
 Temperature   298.150 Kelvin.  Pressure   1.00000 Atm.
 Atom     1 has atomic number 17 and mass  34.96885

 Molecular mass:   163.01888 amu.
 Principal axes and moments of inertia in atomic units:
                           1         2         3
     Eigenvalues --  1180.307571915.602003095.90957
           X            0.99805   0.06239   0.00006
           Y           -0.06239   0.99805  -0.00001
           Z           -0.00006   0.00000   1.00000
 This molecule is an asymmetric top.
 Rotational symmetry number  1.
 Warning -- assumption of classical behavior for rotation
           may cause significant error
 Rotational temperatures (Kelvin)      0.07338     0.04521     0.02798
 Rotational constants (GHZ):           1.52904     0.94213     0.58294
 Zero-point vibrational energy     331757.0 (Joules/Mol)
                                   79.29182 (Kcal/Mol)
 Warning -- explicit consideration of  11 degrees of freedom as
           vibrations may cause significant error
 Vibrational temperatures:    166.47   253.08   302.36   343.36   574.53
          (Kelvin)            609.34   636.54   688.43   777.01   800.99
                              807.14   920.85   969.36  1109.67  1157.98
                             1186.56  1207.60  1228.68  1313.84  1394.56
                             1409.86  1430.86  1436.31  1527.84  1577.75
                             1669.53  1698.27  1777.58  1797.30  1838.48
                             1956.33  2011.13  2046.23  2110.68  2163.35
                             2221.25  2315.73  2381.64  2399.32  4546.97
                             4582.13  4585.92  4611.42  4622.84  4635.33

 Zero-point correction=                           0.126360 (Hartree/Particle)
 Thermal correction to Energy=                    0.134233
 Thermal correction to Enthalpy=                  0.135177
 Thermal correction to Gibbs Free Energy=         0.093101
 Sum of electronic and zero-point Energies=           -861.444608
 Sum of electronic and thermal Energies=              -861.436735
 Sum of electronic and thermal Enthalpies=            -861.435791
 Sum of electronic and thermal Free Energies=         -861.477867

                     E (Thermal)             CV                S
                      KCal/Mol        Cal/Mol-Kelvin    Cal/Mol-Kelvin
 Total                   84.232             31.585             88.557
 Electronic               0.000              0.000              0.000
 Translational            0.889              2.981             41.175
 Rotational               0.889              2.981             30.327
 Vibrational             82.455             25.624             17.055
 Vibration     1          0.608              1.936              3.171
 Vibration     2          0.628              1.872              2.371
 Vibration     3          0.642              1.825              2.042
 Vibration     4          0.657              1.781              1.813
 Vibration     5          0.765              1.472              0.965
 Vibration     6          0.786              1.419              0.880
 Vibration     7          0.802              1.378              0.819
 Vibration     8          0.835              1.298              0.714
 Vibration     9          0.895              1.162              0.565
 Vibration    10          0.912              1.125              0.530
 Vibration    11          0.917              1.116              0.522

 Optimization completed.
    -- Stationary point found.
 Normal termination of Gaussian 16 at Tue Sep 17 09:57:28 2024.

 ----------------------------------------------------------------------
 #p M062X/def2tzvp geom=check guess=read scf(xqc,tight) integral(grid=u
 ltrafine) scrf(SMD, solvent=1,4-Dioxane) polar prop=efg volume
 ----------------------------------------------------------------------

 ---
 spe
 ---
 Structure from the checkpoint file:  "smiles_00021_conf_0.chk"
 Charge =  0 Multiplicity = 1

 SCF Done:  E(RM062X) =  -861.510664969     A.U. after   12 cycles

  Exact polarizability:     189.371      14.624     174.126      -0.007      -0.000      70.573
 Approx polarizability:     205.442      13.092     201.238      -0.007      -0.000      89.582

 Normal termination of Gaussian 16 at Tue Sep 17 10:25:06 2024.
 Gaussian 16:  ES64L-G16RevC.02  7-Dec-2021

 ----------------------------------------------------------------------
 #p M062X/def2tzvp geom=check guess=read scf(xqc,tight) integral(grid=u
 ltrafine) scrf(SMD, solvent=1,4-Dioxane) nmr=giao
 ----------------------------------------------------------------------

 ---
 spe
 ---
 Structure from the checkpoint file:  "smiles_00021_conf_0.chk"
 Charge =  0 Multiplicity = 1

                         Standard orientation:
 ---------------------------------------------------------------------
 Center     Atomic      Atomic             Coordinates (Angstroms)
 Number     Number       Type             X           Y           Z
 ---------------------------------------------------------------------
      1         17           0        2.384469   -1.327399   -0.000158
      2          6           0        1.259534    0.008323   -0.000078
      3          6           0        1.740852    1.298024   -0.000094
      4          6           0        0.846766    2.392821   -0.000032
      5          6           0       -0.512230    2.185983    0.000049
      6          6           0       -1.031200    0.867215    0.000069
      7          6           0       -2.421963    0.591818    0.000148
      8          6           0       -2.855995   -0.710784    0.000158
      9          6           0       -1.888505   -1.745427    0.000132
     10          7           0       -0.587226   -1.541434    0.000032
     11          6           0       -0.142694   -0.257185   -0.000004
     12          1           0        2.811384    1.467566   -0.000155
     13          1           0        1.249079    3.400594   -0.000048
     14          1           0       -1.203334    3.023589    0.000100
     15          1           0       -3.124705    1.420390    0.000187
     16          1           0       -3.912585   -0.956223    0.000195
     17          1           0       -2.212611   -2.784823    0.000090
 ---------------------------------------------------------------------

 SCF Done:  E(RM062X) =  -861.510664969     A.U. after    1 cycles

      1  Cl   Isotropic =   714.2706   Anisotropy =   383.5805

      2  C    Isotropic =    21.1230   Anisotropy =   134.2285

      3  C    Isotropic =    33.8259   Anisotropy =   186.4208

      4  C    Isotropic =    37.3712   Anisotropy =   207.8988

      5  C    Isotropic =    36.7275   Anisotropy =   189.6475

      6  C    Isotropic =    33.8530   Anisotropy =   238.3688

      7  C    Isotropic =    24.5314   Anisotropy =   216.6697

      8  C    Isotropic =    43.2344   Anisotropy =   203.5756

      9  C    Isotropic =     9.7228   Anisotropy =   206.0679

     10  N    Isotropic =  -134.9452   Anisotropy =   634.3737

     11  C    Isotropic =    17.1624   Anisotropy =   214.5635

     12  H    Isotropic =    23.1262   Anisotropy =     9.9593

     13  H    Isotropic =    23.4295   Anisotropy =     6.5665

     14  H    Isotropic =    23.1515   Anisotropy =     7.6872

     15  H    Isotropic =    22.6715   Anisotropy =     8.6644

     16  H    Isotropic =    23.5029   Anisotropy =     6.9652

     17  H    Isotropic =    21.8025   Anisotropy =     7.8738

 The electronic state is 1-A.
 Alpha  occ. eigenvalues -- -102.64225 -14.75597 -10.60878 -10.59439 -10.58573
 Alpha  occ. eigenvalues --  -10.56895 -10.56783 -10.55965 -10.55714 -10.55618
 Alpha  occ. eigenvalues --  -10.55618  -9.80458  -7.52664  -7.52152  -7.52120
 Alpha  occ. eigenvalues --   -1.06578  -0.98363  -0.94550  -0.90235  -0.85875
 Alpha  occ. eigenvalues --   -0.82704  -0.73818  -0.72676  -0.68038  -0.61723
 Alpha  occ. eigenvalues --   -0.59224  -0.58953  -0.53331  -0.51229  -0.50926
 Alpha  occ. eigenvalues --   -0.50424  -0.48491  -0.47617  -0.43706  -0.43615
 Alpha  occ. eigenvalues --   -0.42330  -0.40649  -0.37400  -0.36022  -0.33112
 Alpha  occ. eigenvalues --   -0.31337  -0.28518
 Alpha virt. eigenvalues --   -0.03790  -0.00222   0.03762   0.07243   0.08604
 Alpha virt. eigenvalues --    0.10485   0.11544   0.11562   0.12370   0.13032
 Alpha virt. eigenvalues --    0.13653   0.16003   0.18124   0.18763   0.19615

 Mulliken charges:
               1
     1  Cl  -0.070601
     2  C    0.007395
     3  C   -0.175094
     4  C   -0.146593
     5  C   -0.217292
     6  C    0.093720
     7  C   -0.151001
     8  C   -0.166563
     9  C   -0.066424
    10  N   -0.247813
    11  C    0.145182
    12  H    0.169078
    13  H    0.167459
    14  H    0.163449
    15  H    0.164228
    16  H    0.166574
    17  H    0.164296
 Sum of Mulliken charges =  -0.00000

 Dipole moment (field-independent basis, Debye):
    X=             -3.0282    Y=              3.1635    Z=              0.0002  Tot=              4.3792
 Quadrupole moment (field-independent basis, Debye-Ang):
   XX=            -59.1187   YY=            -64.1892   ZZ=            -74.0400
   XY=              4.8968   XZ=             -0.0007   YZ=             -0.0001

 Normal termination of Gaussian 16 at Tue Sep 17 10:35:11 2024.
