 Gaussian 16, Revision C.02,

 ----------------------------------------------------------------------
 #p B3LYP/6-31G(d,p) EmpiricalDispersion=GD3BJ opt freq scf(xqc,tight)
 integral(grid=ultrafine)
 ----------------------------------------------------------------------

 ----------------------------------
 opt-freq conformers_unique/conf_ac
 ----------------------------------
 Symbolic Z-matrix:
 Charge =  0 Multiplicity = 1

 SCF Done:  E(RB3LYP) =  -3157.29589096     A.U. after   14 cycles
 SCF Done:  E(RB3LYP) =  -3157.29844929     A.U. after   12 cycles
 SCF Done:  E(RB3LYP) =  -3157.29825479     A.U. after   11 cycles
 SCF Done:  E(RB3LYP) =  -3157.29874095     A.U. after   11 cycles
 SCF Done:  E(RB3LYP) =  -3157.29892404     A.U. after   10 cycles
 SCF Done:  E(RB3LYP) =  -3157.29896478     A.U. after    9 cycles
 SCF Done:  E(RB3LYP) =  -3157.29897434     A.U. after    8 cycles
 SCF Done:  E(RB3LYP) =  -3157.29897535     A.U. after    7 cycles
 SCF Done:  E(RB3LYP) =  -3157.29897542     A.U. after    6 cycles
 SCF Done:  E(RB3LYP) =  -3157.29897541     A.U. after    6 cycles
 Optimization completed.
    -- Stationary point found.
 Normal termination of Gaussian 16 at Tue Sep 17 09:52:56 2024.

 ----------------------------------------------------------------------
 #P Geom=AllCheck Guess=TCheck SCRF=Check GenChk RB3LYP/6-31G(d,p) Freq
 ----------------------------------------------------------------------

 Structure from the checkpoint file:  "smiles_00105_conf_2.chk"
 ----------------------------------
 opt-freq conformers_unique/conf_ac
 ----------------------------------
 Charge =  0 Multiplicity = 1

 SCF Done:  E(RB3LYP) =  -3157.29897541     A.U. after    1 cycles

 The electronic state is 1-A.
 Alpha  occ. eigenvalues -- -482.90834 -61.86892 -56.38831 -56.38465 -56.38448
 Alpha  occ. eigenvalues --  -10.23651 -10.20134 -10.20124 -10.19569 -10.19376
 Alpha  occ. eigenvalues --  -10.19250 -10.19191 -10.18515 -10.18457 -10.17698
 Alpha  occ. eigenvalues --  -10.17688 -10.17558 -10.17087 -10.16740 -10.16734
 Alpha  occ. eigenvalues --   -8.57758  -6.53047  -6.51843  -6.51796  -2.64618
 Alpha  occ. eigenvalues --   -2.64281  -2.64246  -2.63285  -2.63284  -0.87481
 Alpha  occ. eigenvalues --   -0.81954  -0.81217  -0.77766  -0.77264  -0.72563
 Alpha  occ. eigenvalues --   -0.70614  -0.68449  -0.68207  -0.67787  -0.62699
 Alpha  occ. eigenvalues --   -0.61371  -0.59293  -0.55361  -0.53827  -0.48891
 Alpha  occ. eigenvalues --   -0.48482  -0.45359  -0.44850  -0.43564  -0.43479
 Alpha  occ. eigenvalues --   -0.43286  -0.42151  -0.41599  -0.40646  -0.40103
 Alpha  occ. eigenvalues --   -0.38918  -0.38583  -0.38297  -0.37210  -0.37085
 Alpha  occ. eigenvalues --   -0.36153  -0.35773  -0.34448  -0.34020  -0.33896
 Alpha  occ. eigenvalues --   -0.33751  -0.32992  -0.32441  -0.31914  -0.31043
 Alpha  occ. eigenvalues --   -0.29501  -0.26991  -0.24078  -0.22787
 Alpha virt. eigenvalues --   -0.00599  -0.00138   0.01409   0.08536   0.09853
 Alpha virt. eigenvalues --    0.10185   0.11811   0.12492   0.13365   0.14427
 Alpha virt. eigenvalues --    0.14901   0.14985   0.15465   0.15699   0.16148

 Mulliken charges:
               1
     1  C   -0.303527
     2  C   -0.130443
     3  C   -0.303609
     4  C    0.165944
     5  C   -0.205921
     6  C    0.154350
     7  C   -0.125417
     8  C   -0.311609
     9  C   -0.311503
    10  C   -0.056670
    11  Br  -0.133908
    12  C    0.131373
    13  C   -0.122597
    14  C   -0.319473
    15  C   -0.302079
    16  C   -0.169540
    17  H    0.102201
    18  H    0.108207
    19  H    0.100494
    20  H    0.088533
    21  H    0.103000
    22  H    0.100393
    23  H    0.108152
    24  H    0.077161
    25  H    0.090626
    26  H    0.122032
    27  H    0.101549
    28  H    0.096808
    29  H    0.096722
    30  H    0.122350
    31  H    0.101668
    32  H    0.114983
    33  H    0.102069
    34  H    0.102085
    35  H    0.108297
    36  H    0.118566
    37  H    0.100773
    38  H    0.099426
    39  H    0.078534
 Sum of Mulliken charges =  -0.00000

 Dipole moment (field-independent basis, Debye):
    X=             -1.5767    Y=             -0.3378    Z=              0.0551  Tot=              1.6134
 Quadrupole moment (field-independent basis, Debye-Ang):
   XX=           -109.5942   YY=           -106.7366   ZZ=           -114.5981
   XY=             -0.0986   XZ=              0.0010   YZ=             -0.5439

  Exact polarizability:     215.905      -1.354     192.620       0.527      -0.902     124.738
 Approx polarizability:     314.105       7.025     287.320      -2.437      -4.504     183.290

                      1                      2                      3
                      A                      A                      A
 Frequencies --     29.3576                43.6830                72.6818
 Red. masses --      2.8108                 3.9632                 2.9398
 Frc consts  --      0.0014                 0.0045                 0.0092
 IR Inten    --      0.0020                 0.0850                 0.2325

                      4                      5                      6
                      A                      A                      A
 Frequencies --     93.8293               109.8568               135.5118
 Red. masses --      2.6293                 3.1088                 2.9990
 Frc consts  --      0.0136                 0.0221                 0.0324
 IR Inten    --      0.0840                 0.0154                 0.0773

                      7                      8                      9
                      A                      A                      A
 Frequencies --    160.8308               171.2883               189.1275
 Red. masses --      2.3428                 2.9155                 6.4598
 Frc consts  --      0.0357                 0.0504                 0.1361
 IR Inten    --      0.0588                 0.3237                 0.1915

                     10                     11                     12
                      A                      A                      A
 Frequencies --    194.7254               215.5579               231.8139
 Red. masses --      2.4941                 1.5474                 1.5420
 Frc consts  --      0.0557                 0.0424                 0.0488
 IR Inten    --      0.1010                 0.5495                 0.0835

                     13                     14                     15
                      A                      A                      A
 Frequencies --    232.9696               238.7462               253.8357
 Red. masses --      1.9555                 1.1360                 1.1689
 Frc consts  --      0.0625                 0.0381                 0.0444
 IR Inten    --      0.2459                 0.0231                 0.0508

                     16                     17                     18
                      A                      A                      A
 Frequencies --    255.3758               264.8000               289.0875
 Red. masses --      1.3649                 1.4306                 1.0578
 Frc consts  --      0.0524                 0.0591                 0.0521
 IR Inten    --      0.1638                 0.0312                 0.1361

                     19                     20                     21
                      A                      A                      A
 Frequencies --    312.0174               330.5002               351.8452
 Red. masses --      3.0813                 2.6772                 3.2475
 Frc consts  --      0.1767                 0.1723                 0.2369
 IR Inten    --      0.0532                 0.7730                 1.8166

                     22                     23                     24
                      A                      A                      A
 Frequencies --    367.0255               383.8996               408.2256
 Red. masses --      2.7145                 3.2808                 4.1438
 Frc consts  --      0.2154                 0.2849                 0.4069
 IR Inten    --      0.8415                 0.1695                 1.6293

                     25                     26                     27
                      A                      A                      A
 Frequencies --    446.7677               473.9296               527.9563
 Red. masses --      2.5047                 2.8918                 4.0336
 Frc consts  --      0.2946                 0.3827                 0.6624
 IR Inten    --      1.2109                 0.7117                 1.3357

                     28                     29                     30
                      A                      A                      A
 Frequencies --    568.9668               614.1612               636.8024
 Red. masses --      3.0912                 3.1611                 3.1484
 Frc consts  --      0.5896                 0.7025                 0.7522
 IR Inten    --      2.5756                 3.6235                 1.9332

                     31                     32                     33
                      A                      A                      A
 Frequencies --    647.4251               664.6009               773.0367
 Red. masses --      3.8133                 3.8270                 3.4590
 Frc consts  --      0.9417                 0.9959                 1.2179
 IR Inten    --      0.2354                 1.7982                 2.6495

                     34                     35                     36
                      A                      A                      A
 Frequencies --    825.6720               849.7409               894.3952
 Red. masses --      3.6006                 3.1488                 2.5326
 Frc consts  --      1.4462                 1.3396                 1.1937
 IR Inten    --      2.5031                 0.8920                 0.6486

                     37                     38                     39
                      A                      A                      A
 Frequencies --    906.5182               912.2003               937.6059
 Red. masses --      1.5885                 1.3919                 1.1773
 Frc consts  --      0.7691                 0.6824                 0.6098
 IR Inten    --      9.1145                 1.6084                 0.8271

                     40                     41                     42
                      A                      A                      A
 Frequencies --    941.0215               946.8854               951.7904
 Red. masses --      1.3510                 1.1906                 1.8739
 Frc consts  --      0.7049                 0.6290                 1.0002
 IR Inten    --      1.4913                 2.4206                 9.8831

                     43                     44                     45
                      A                      A                      A
 Frequencies --    968.0050               969.9367               975.1019
 Red. masses --      2.4590                 1.4967                 1.4520
 Frc consts  --      1.3576                 0.8296                 0.8134
 IR Inten    --      2.5724                 0.0884                 0.0503

                     46                     47                     48
                      A                      A                      A
 Frequencies --    978.8080              1033.3471              1086.3571
 Red. masses --      1.4800                 7.7234                 1.5273
 Frc consts  --      0.8354                 4.8591                 1.0620
 IR Inten    --      1.6002                45.5045                12.6283

                     49                     50                     51
                      A                      A                      A
 Frequencies --   1114.1337              1128.2361              1129.9382
 Red. masses --      1.6464                 1.7699                 2.3140
 Frc consts  --      1.2041                 1.3274                 1.7407
 IR Inten    --     11.5559                 7.4432                 0.8151

                     52                     53                     54
                      A                      A                      A
 Frequencies --   1139.8565              1143.1264              1181.0255
 Red. masses --      2.4445                 2.0399                 1.8899
 Frc consts  --      1.8713                 1.5705                 1.5531
 IR Inten    --      1.1785                10.5013                 0.9744

                     55                     56                     57
                      A                      A                      A
 Frequencies --   1190.3375              1209.3339              1224.0859
 Red. masses --      1.7984                 1.9690                 1.5502
 Frc consts  --      1.5013                 1.6967                 1.3686
 IR Inten    --      4.9722                 9.4109                 2.9010

                     58                     59                     60
                      A                      A                      A
 Frequencies --   1270.0696              1298.8305              1321.4091
 Red. masses --      1.7261                 2.2696                 3.4161
 Frc consts  --      1.6404                 2.2558                 3.5144
 IR Inten    --      1.1702                 0.5289                 8.6997

                     61                     62                     63
                      A                      A                      A
 Frequencies --   1342.1505              1352.7495              1361.8410
 Red. masses --      1.4104                 1.3268                 1.3526
 Frc consts  --      1.4969                 1.4305                 1.4780
 IR Inten    --      4.9218                 2.3018                 4.3658

                     64                     65                     66
                      A                      A                      A
 Frequencies --   1362.5604              1374.8667              1401.7318
 Red. masses --      1.5512                 2.1925                 1.4454
 Frc consts  --      1.6969                 2.4418                 1.6733
 IR Inten    --     11.0221                 1.5729                 2.4038

                     67                     68                     69
                      A                      A                      A
 Frequencies --   1411.4984              1412.6485              1413.4895
 Red. masses --      1.2744                 1.2334                 1.2217
 Frc consts  --      1.4960                 1.4502                 1.4381
 IR Inten    --      4.0573                 2.1562                 7.9591

                     70                     71                     72
                      A                      A                      A
 Frequencies --   1431.5613              1432.6510              1434.7777
 Red. masses --      1.2368                 1.2356                 1.2231
 Frc consts  --      1.4934                 1.4942                 1.4834
 IR Inten    --      6.8502                 0.8964                 0.7590

                     73                     74                     75
                      A                      A                      A
 Frequencies --   1468.1154              1481.4339              1501.3312
 Red. masses --      2.5005                 2.2766                 1.0440
 Frc consts  --      3.1753                 2.9437                 1.3864
 IR Inten    --      9.2957                30.6256                 0.0600

                     76                     77                     78
                      A                      A                      A
 Frequencies --   1503.6165              1503.7468              1505.3390
 Red. masses --      1.0429                 1.0455                 1.0479
 Frc consts  --      1.3892                 1.3929                 1.3990
 IR Inten    --      1.1703                 2.2836                 1.2721

                     79                     80                     81
                      A                      A                      A
 Frequencies --   1508.0953              1517.0856              1517.2210
 Red. masses --      1.0776                 1.0474                 1.0489
 Frc consts  --      1.4440                 1.4203                 1.4227
 IR Inten    --      1.8380                 8.1772                 5.8532

                     82                     83                     84
                      A                      A                      A
 Frequencies --   1517.8528              1523.3761              1524.0195
 Red. masses --      1.0501                 1.0479                 1.0726
 Frc consts  --      1.4254                 1.4327                 1.4679
 IR Inten    --      0.3425                 5.8904                 5.9812

                     85                     86                     87
                      A                      A                      A
 Frequencies --   1528.7979              1536.2845              1627.4462
 Red. masses --      1.0587                 1.0678                 7.3969
 Frc consts  --      1.4578                 1.4849                11.5429
 IR Inten    --      3.4457                 1.7904                 6.4524

                     88                     89                     90
                      A                      A                      A
 Frequencies --   1646.5495              3034.7730              3035.6753
 Red. masses --      5.1991                 1.0843                 1.0826
 Frc consts  --      8.3047                 5.8835                 5.8782
 IR Inten    --      4.2853                11.6732                21.1394

                     91                     92                     93
                      A                      A                      A
 Frequencies --   3040.3684              3041.4394              3044.3184
 Red. masses --      1.0347                 1.0356                 1.0356
 Frc consts  --      5.6354                 5.6441                 5.6549
 IR Inten    --     21.9014                24.5643                26.9905

                     94                     95                     96
                      A                      A                      A
 Frequencies --   3045.1079              3049.0035              3053.3816
 Red. masses --      1.0376                 1.0383                 1.0403
 Frc consts  --      5.6688                 5.6872                 5.7147
 IR Inten    --     35.5483                34.5671                45.1330

                     97                     98                     99
                      A                      A                      A
 Frequencies --   3063.3339              3108.8471              3109.0955
 Red. masses --      1.0820                 1.1023                 1.1026
 Frc consts  --      5.9825                 6.2770                 6.2797
 IR Inten    --      4.5692                 2.0579                 0.4302

                    100                    101                    102
                      A                      A                      A
 Frequencies --   3113.7189              3115.1697              3115.9671
 Red. masses --      1.1026                 1.1017                 1.1015
 Frc consts  --      6.2981                 6.2993                 6.3010
 IR Inten    --     15.5370               108.0145                39.9593

                    103                    104                    105
                      A                      A                      A
 Frequencies --   3116.2699              3121.4490              3122.6933
 Red. masses --      1.1020                 1.1029                 1.1031
 Frc consts  --      6.3055                 6.3314                 6.3379
 IR Inten    --     46.3990                20.4636                30.4348

                    106                    107                    108
                      A                      A                      A
 Frequencies --   3123.1354              3138.0358              3157.0173
 Red. masses --      1.1025                 1.1010                 1.0983
 Frc consts  --      6.3361                 6.3875                 6.4497
 IR Inten    --     30.9142                17.7170                 0.2091

                    109                    110                    111
                      A                      A                      A
 Frequencies --   3159.5283              3169.4583              3208.2361
 Red. masses --      1.0978                 1.0895                 1.0883
 Frc consts  --      6.4568                 6.4485                 6.5996
 IR Inten    --     19.3539                18.8662                 9.2694

 - Thermochemistry -
 -------------------
 Temperature   298.150 Kelvin.  Pressure   1.00000 Atm.
 Atom     1 has atomic number  6 and mass  12.00000

 Molecular mass:   282.09831 amu.
 Principal axes and moments of inertia in atomic units:
                           1         2         3
     Eigenvalues --  3527.272485903.319058349.91969
           X            0.99848  -0.05483   0.00498
           Y            0.05481   0.99849   0.00372
           Z           -0.00518  -0.00344   0.99998
 This molecule is an asymmetric top.
 Rotational symmetry number  1.
 Warning -- assumption of classical behavior for rotation
           may cause significant error
 Rotational temperatures (Kelvin)      0.02456     0.01467     0.01037
 Rotational constants (GHZ):           0.51165     0.30572     0.21614
 Zero-point vibrational energy     907049.7 (Joules/Mol)
                                  216.79008 (Kcal/Mol)
 Warning -- explicit consideration of  29 degrees of freedom as
           vibrations may cause significant error
 Vibrational temperatures:     42.24    62.85   104.57   135.00   158.06
          (Kelvin)            194.97   231.40   246.45   272.11   280.17
                              310.14   333.53   335.19   343.50   365.21
                              367.43   380.99   415.93   448.92   475.52
                              506.23   528.07   552.35   587.35   642.80
                              681.88   759.61   818.62   883.64   916.22
                              931.50   956.21  1112.23  1187.96  1222.59
                             1286.84  1304.28  1312.45  1349.01  1353.92
                             1362.36  1369.41  1392.74  1395.52  1402.95
                             1408.29  1486.76  1563.03  1602.99  1623.28
                             1625.73  1640.00  1644.70  1699.23  1712.63
                             1739.96  1761.19  1827.35  1868.73  1901.21
                             1931.06  1946.30  1959.39  1960.42  1978.13
                             2016.78  2030.83  2032.49  2033.70  2059.70
                             2061.27  2064.33  2112.29  2131.45  2160.08
                             2163.37  2163.56  2165.85  2169.81  2182.75
                             2182.94  2183.85  2191.80  2192.72  2199.60
                             2210.37  2341.53  2369.02  4366.36  4367.66
                             4374.41  4375.95  4380.10  4381.23  4386.84
                             4393.14  4407.45  4472.94  4473.30  4479.95
                             4482.03  4483.18  4483.62  4491.07  4492.86
                             4493.50  4514.93  4542.24  4545.86  4560.14
                             4615.94

 Zero-point correction=                           0.345477 (Hartree/Particle)
 Thermal correction to Energy=                    0.363987
 Thermal correction to Enthalpy=                  0.364931
 Thermal correction to Gibbs Free Energy=         0.299156
 Sum of electronic and zero-point Energies=          -3156.953498
 Sum of electronic and thermal Energies=             -3156.934988
 Sum of electronic and thermal Enthalpies=           -3156.934044
 Sum of electronic and thermal Free Energies=        -3156.999819

                     E (Thermal)             CV                S
                      KCal/Mol        Cal/Mol-Kelvin    Cal/Mol-Kelvin
 Total                  228.405             69.730            138.436
 Electronic               0.000              0.000              0.000
 Translational            0.889              2.981             42.809
 Rotational               0.889              2.981             33.519
 Vibrational            226.628             63.768             62.107
 Vibration     1          0.593              1.984              5.872
 Vibration     2          0.595              1.980              5.085
 Vibration     3          0.599              1.967              4.079
 Vibration     4          0.603              1.954              3.579
 Vibration     5          0.606              1.941              3.271
 Vibration     6          0.613              1.918              2.866
 Vibration     7          0.622              1.890              2.540
 Vibration     8          0.626              1.878              2.421
 Vibration     9          0.633              1.855              2.236
 Vibration    10          0.635              1.847              2.182
 Vibration    11          0.645              1.817              1.996
 Vibration    12          0.653              1.792              1.865
 Vibration    13          0.654              1.790              1.856
 Vibration    14          0.657              1.781              1.812
 Vibration    15          0.665              1.756              1.704
 Vibration    16          0.666              1.754              1.693
 Vibration    17          0.671              1.738              1.630
 Vibration    18          0.686              1.694              1.479
 Vibration    19          0.700              1.651              1.352
 Vibration    20          0.713              1.615              1.258
 Vibration    21          0.728              1.571              1.158
 Vibration    22          0.740              1.540              1.092
 Vibration    23          0.753              1.505              1.024
 Vibration    24          0.773              1.452              0.933
 Vibration    25          0.806              1.368              0.806
 Vibration    26          0.831              1.308              0.727
 Vibration    27          0.883              1.188              0.592
 Vibration    28          0.925              1.098              0.506
 Vibration    29          0.974              1.002              0.426

 Optimization completed.
    -- Stationary point found.
 Normal termination of Gaussian 16 at Tue Sep 17 09:59:57 2024.
 Gaussian 16:  ES64L-G16RevC.02  7-Dec-2021

 ----------------------------------------------------------------------
 #p M062X/def2tzvp geom=check guess=read scf(xqc,tight) integral(grid=u
 ltrafine) scrf(SMD, solvent=1,4-Dioxane) polar prop=efg volume
 ----------------------------------------------------------------------

 ---
 spe
 ---
 Structure from the checkpoint file:  "smiles_00105_conf_2.chk"
 Charge =  0 Multiplicity = 1

                         Standard orientation:
 ---------------------------------------------------------------------
 Center     Atomic      Atomic             Coordinates (Angstroms)
 Number     Number       Type             X           Y           Z
 ---------------------------------------------------------------------
      1          6           0       -4.193645   -0.677687    1.310461
      2          6           0       -3.476472   -1.220622    0.063545
      3          6           0       -4.230580   -0.835854   -1.219930
      4          6           0       -2.027681   -0.768676    0.013882
      5          6           0       -0.987939   -1.693573    0.052372
      6          6           0        0.364435   -1.324664    0.010119
      7          6           0        1.396851   -2.446617    0.067891
      8          6           0        2.258005   -2.401538    1.342969
      9          6           0        2.235342   -2.562639   -1.217444
     10          6           0        0.636842    0.048047   -0.076334
     11         35           0        2.468321    0.664234   -0.134378
     12          6           0       -0.372752    1.027419   -0.121408
     13          6           0       -0.053205    2.514975   -0.169456
     14          6           0       -1.166067    3.371668   -0.783710
     15          6           0        0.307478    3.019105    1.241041
     16          6           0       -1.696584    0.585028   -0.072852
     17          1           0       -4.242297    0.416208    1.290959
     18          1           0       -3.670888   -0.971953    2.225191
     19          1           0       -5.219851   -1.056010    1.362841
     20          1           0       -3.471645   -2.315900    0.132069
     21          1           0       -4.279101    0.252026   -1.336162
     22          1           0       -5.257642   -1.214660   -1.194367
     23          1           0       -3.734858   -1.243963   -2.105536
     24          1           0       -1.227087   -2.751989    0.118638
     25          1           0        0.807794   -3.369485    0.130684
     26          1           0        2.871836   -1.501273    1.386081
     27          1           0        1.623381   -2.421536    2.234276
     28          1           0        2.921385   -3.271994    1.377149
     29          1           0        2.886265   -3.441263   -1.159672
     30          1           0        2.861061   -1.683729   -1.376038
     31          1           0        1.585079   -2.677440   -2.090107
     32          1           0        0.834575    2.630594   -0.799918
     33          1           0       -0.809474    4.397721   -0.914496
     34          1           0       -2.050879    3.418557   -0.140039
     35          1           0       -1.475914    2.991344   -1.761706
     36          1           0        1.137885    2.445317    1.658502
     37          1           0       -0.552371    2.919743    1.912170
     38          1           0        0.598835    4.074207    1.211126
     39          1           0       -2.491484    1.321046   -0.105274
 ---------------------------------------------------------------------

 SCF Done:  E(RM062X) =  -3159.59922390     A.U. after   12 cycles
