 Gaussian 16, Revision C.02,

 ----------------------------------------------------------------------
 #p B3LYP/6-31G(d,p) EmpiricalDispersion=GD3BJ opt freq scf(xqc,tight)
 integral(grid=ultrafine)
 ----------------------------------------------------------------------

 ----------------------------------
 opt-freq conformers_unique/conf_af
 ----------------------------------
 Symbolic Z-matrix:
 Charge =  0 Multiplicity = 1

 SCF Done:  E(RB3LYP) =  -2996.56255580     A.U. after   14 cycles
 SCF Done:  E(RB3LYP) =  -2996.56455843     A.U. after   12 cycles
 SCF Done:  E(RB3LYP) =  -2996.56494519     A.U. after   11 cycles
 SCF Done:  E(RB3LYP) =  -2996.56495585     A.U. after   12 cycles
 SCF Done:  E(RB3LYP) =  -2996.56514477     A.U. after   11 cycles
 SCF Done:  E(RB3LYP) =  -2996.56527843     A.U. after   11 cycles
 SCF Done:  E(RB3LYP) =  -2996.56530093     A.U. after   10 cycles
 SCF Done:  E(RB3LYP) =  -2996.56530652     A.U. after    8 cycles
 SCF Done:  E(RB3LYP) =  -2996.56531024     A.U. after    9 cycles
 SCF Done:  E(RB3LYP) =  -2996.56531088     A.U. after    8 cycles
 SCF Done:  E(RB3LYP) =  -2996.56531093     A.U. after    6 cycles
 Optimization completed.
    -- Stationary point found.
 Normal termination of Gaussian 16 at Tue Sep 17 09:55:54 2024.

 ----------------------------------------------------------------------
 #P Geom=AllCheck Guess=TCheck SCRF=Check GenChk RB3LYP/6-31G(d,p) Freq
 ----------------------------------------------------------------------

 Structure from the checkpoint file:  "smiles_00017_conf_5.chk"
 ----------------------------------
 opt-freq conformers_unique/conf_af
 ----------------------------------
 Charge =  0 Multiplicity = 1

 SCF Done:  E(RB3LYP) =  -2996.56531093     A.U. after    1 cycles

                      1                      2                      3
                      A                      A                      A
 Frequencies --     40.8124                93.2121                96.9946
 Red. masses --      2.6735                 4.6300                 4.0726
 Frc consts  --      0.0026                 0.0237                 0.0226
 IR Inten    --      0.1210                 1.6647                 0.6587

                      4                      5                      6
                      A                      A                      A
 Frequencies --    161.8916               177.8632               254.7039
 Red. masses --      4.4192                 5.4739                 1.0927
 Frc consts  --      0.0682                 0.1020                 0.0418
 IR Inten    --      0.4258                 1.0037                 0.0390

                      7                      8                      9
                      A                      A                      A
 Frequencies --    279.7852               290.2431               309.9681
 Red. masses --      1.6525                 1.9982                 4.4565
 Frc consts  --      0.0762                 0.0992                 0.2523
 IR Inten    --      0.2513                 1.3391                 0.8809

                     10                     11                     12
                      A                      A                      A
 Frequencies --    359.7463               389.5738               462.0312
 Red. masses --      3.0477                 2.4895                 3.1367
 Frc consts  --      0.2324                 0.2226                 0.3945
 IR Inten    --      0.9893                 1.1924                 3.7847

                     13                     14                     15
                      A                      A                      A
 Frequencies --    480.9486               511.7809               533.2273
 Red. masses --      3.9330                 3.9042                 5.1849
 Frc consts  --      0.5360                 0.6025                 0.8686
 IR Inten    --      6.3394                 3.5010                 5.0490

                     16                     17                     18
                      A                      A                      A
 Frequencies --    621.1350               668.2993               751.7152
 Red. masses --      3.4185                 6.3949                 3.8046
 Frc consts  --      0.7771                 1.6828                 1.2667
 IR Inten    --      2.1062                12.7356                 7.8077

                     19                     20                     21
                      A                      A                      A
 Frequencies --    762.9017               796.8577               860.1424
 Red. masses --      1.5965                 2.3667                 3.1404
 Frc consts  --      0.5475                 0.8854                 1.3689
 IR Inten    --     16.5364                25.3148                 9.5208

                     22                     23                     24
                      A                      A                      A
 Frequencies --    885.3341               935.2934               943.7909
 Red. masses --      1.5455                 1.3069                 1.3310
 Frc consts  --      0.7137                 0.6736                 0.6985
 IR Inten    --      1.9159                 0.6151                 4.3532

                     25                     26                     27
                      A                      A                      A
 Frequencies --    954.2468               968.4113               992.3103
 Red. masses --      1.7197                 2.0052                 1.2944
 Frc consts  --      0.9226                 1.1079                 0.7510
 IR Inten    --     14.9926                42.3344                 0.5411

                     28                     29                     30
                      A                      A                      A
 Frequencies --   1049.5968              1070.3057              1144.0342
 Red. masses --      7.5423                 1.9453                 1.7143
 Frc consts  --      4.8955                 1.3130                 1.3219
 IR Inten    --     41.0651                 6.0981                 7.0127

                     31                     32                     33
                      A                      A                      A
 Frequencies --   1153.7290              1166.6010              1186.5898
 Red. masses --      1.7937                 1.9637                 1.0901
 Frc consts  --      1.4067                 1.5746                 0.9043
 IR Inten    --     17.3697               105.3233                 1.1005

                     34                     35                     36
                      A                      A                      A
 Frequencies --   1205.8196              1263.1099              1287.7027
 Red. masses --      1.9683                 2.4776                 1.6408
 Frc consts  --      1.6862                 2.3290                 1.6030
 IR Inten    --      7.5923               129.0316                35.0610

                     37                     38                     39
                      A                      A                      A
 Frequencies --   1332.3147              1371.6186              1402.1236
 Red. masses --      7.9059                 1.3336                 1.2719
 Frc consts  --      8.2683                 1.4783                 1.4732
 IR Inten    --      1.6661                 4.0320                 1.2551

                     40                     41                     42
                      A                      A                      A
 Frequencies --   1415.6233              1431.7717              1479.9103
 Red. masses --      1.3378                 1.2492                 2.2112
 Frc consts  --      1.5796                 1.5088                 2.8533
 IR Inten    --     16.7503                21.4619                11.4475

                     43                     44                     45
                      A                      A                      A
 Frequencies --   1499.5697              1504.0964              1513.6225
 Red. masses --      1.0517                 1.0860                 1.0618
 Frc consts  --      1.3934                 1.4475                 1.4333
 IR Inten    --      1.6862                14.0551                12.5163

                     46                     47                     48
                      A                      A                      A
 Frequencies --   1517.0392              1529.7640              1623.8298
 Red. masses --      2.1866                 1.1056                 5.9651
 Frc consts  --      2.9649                 1.5244                 9.2672
 IR Inten    --     67.2095                26.2385                 1.1785

                     49                     50                     51
                      A                      A                      A
 Frequencies --   1642.3964              3049.4685              3057.6848
 Red. masses --      6.1863                 1.0353                 1.0370
 Frc consts  --      9.8320                 5.6725                 5.7124
 IR Inten    --     20.2636                12.1408                12.2920

                     52                     53                     54
                      A                      A                      A
 Frequencies --   3076.4624              3119.5151              3128.1595
 Red. masses --      1.0869                 1.1018                 1.1013
 Frc consts  --      6.0607                 6.3173                 6.3493
 IR Inten    --     17.5581                 3.7722                60.0491

                     55                     56                     57
                      A                      A                      A
 Frequencies --   3136.2316              3155.4861              3191.2317
 Red. masses --      1.1034                 1.1016                 1.0862
 Frc consts  --      6.3944                 6.4628                 6.5176
 IR Inten    --     28.3124                 8.6031                 2.1941

                     58                     59                     60
                      A                      A                      A
 Frequencies --   3205.8067              3220.6149              3226.5809
 Red. masses --      1.0917                 1.0943                 1.0944
 Frc consts  --      6.6106                 6.6878                 6.7129
 IR Inten    --     14.2976                 8.6034                 5.8812

 - Thermochemistry -
 -------------------
 Temperature   298.150 Kelvin.  Pressure   1.00000 Atm.
 Atom     1 has atomic number  6 and mass  12.00000

 Molecular mass:   213.99933 amu.
 Principal axes and moments of inertia in atomic units:
                           1         2         3
     Eigenvalues --  1930.542752455.036953969.36807
           X            0.97130  -0.23788   0.00078
           Y            0.23787   0.97125  -0.00975
           Z            0.00156   0.00965   0.99995
 This molecule is an asymmetric top.
 Rotational symmetry number  1.
 Warning -- assumption of classical behavior for rotation
           may cause significant error
 Rotational temperatures (Kelvin)      0.04487     0.03528     0.02182
 Rotational constants (GHZ):           0.93484     0.73512     0.45467
 Zero-point vibrational energy     472175.8 (Joules/Mol)
                                  112.85273 (Kcal/Mol)
 Warning -- explicit consideration of  15 degrees of freedom as
           vibrations may cause significant error
 Vibrational temperatures:     58.72   134.11   139.55   232.93   255.91
          (Kelvin)            366.46   402.55   417.60   445.98   517.59
                              560.51   664.76   691.98   736.34   767.20
                              893.67   961.53  1081.55  1097.65  1146.50
                             1237.55  1273.80  1345.68  1357.90  1372.95
                             1393.33  1427.71  1510.14  1539.93  1646.01
                             1659.96  1678.48  1707.24  1734.91  1817.33
                             1852.72  1916.90  1973.45  2017.34  2036.77
                             2060.00  2129.26  2157.55  2164.06  2177.77
                             2182.68  2200.99  2336.33  2363.04  4387.51
                             4399.33  4426.34  4488.29  4500.72  4512.34
                             4540.04  4591.47  4612.44  4633.75  4642.33

 Zero-point correction=                           0.179842 (Hartree/Particle)
 Thermal correction to Energy=                    0.190706
 Thermal correction to Enthalpy=                  0.191650
 Thermal correction to Gibbs Free Energy=         0.142088
 Sum of electronic and zero-point Energies=          -2996.385469
 Sum of electronic and thermal Energies=             -2996.374605
 Sum of electronic and thermal Enthalpies=           -2996.373661
 Sum of electronic and thermal Free Energies=        -2996.423223

                     E (Thermal)             CV                S
                      KCal/Mol        Cal/Mol-Kelvin    Cal/Mol-Kelvin
 Total                  119.670             40.839            104.311
 Electronic               0.000              0.000              0.000
 Translational            0.889              2.981             41.986
 Rotational               0.889              2.981             31.309
 Vibrational            117.892             34.877             31.016
 Vibration     1          0.594              1.981              5.219
 Vibration     2          0.602              1.954              3.592
 Vibration     3          0.603              1.951              3.514
 Vibration     4          0.622              1.889              2.528
 Vibration     5          0.628              1.870              2.351
 Vibration     6          0.665              1.755              1.698
 Vibration     7          0.680              1.711              1.535
 Vibration     8          0.686              1.692              1.473
 Vibration     9          0.699              1.655              1.363
 Vibration    10          0.734              1.555              1.123
 Vibration    11          0.757              1.492              1.002
 Vibration    12          0.820              1.334              0.760
 Vibration    13          0.837              1.292              0.708
 Vibration    14          0.867              1.224              0.629
 Vibration    15          0.888              1.177              0.580

 Optimization completed.
    -- Stationary point found.
 Normal termination of Gaussian 16 at Tue Sep 17 09:58:04 2024.

 ----------------------------------------------------------------------
 #p M062X/def2tzvp geom=check guess=read scf(xqc,tight) integral(grid=u
 ltrafine) scrf(SMD, solvent=1,4-Dioxane) polar prop=efg volume
 ----------------------------------------------------------------------

 ---
 spe
 ---
 Structure from the checkpoint file:  "smiles_00017_conf_5.chk"
 Charge =  0 Multiplicity = 1

 SCF Done:  E(RM062X) =  -2998.97110374     A.U. after   11 cycles

  Exact polarizability:     161.984       2.774     175.376     -10.016       4.607     100.458
 Approx polarizability:     170.975       7.241     188.721     -12.564       9.050     121.350

 Normal termination of Gaussian 16 at Tue Sep 17 10:43:24 2024.
 Gaussian 16:  ES64L-G16RevC.02  7-Dec-2021

 ----------------------------------------------------------------------
 #p M062X/def2tzvp geom=check guess=read scf(xqc,tight) integral(grid=u
 ltrafine) scrf(SMD, solvent=1,4-Dioxane) nmr=giao
 ----------------------------------------------------------------------

 ---
 spe
 ---
 Structure from the checkpoint file:  "smiles_00017_conf_5.chk"
 Charge =  0 Multiplicity = 1

                         Standard orientation:
 ---------------------------------------------------------------------
 Center     Atomic      Atomic             Coordinates (Angstroms)
 Number     Number       Type             X           Y           Z
 ---------------------------------------------------------------------
      1          6           0        1.592300   -1.374746    1.365332
      2          6           0        2.102431   -1.202038   -0.061113
      3          6           0        3.463198   -0.513145   -0.116536
      4          8           0        1.138088   -0.531949   -0.922419
      5          6           0        0.487118    0.570639   -0.447473
      6          6           0        1.099211    1.829571   -0.419411
      7          6           0        0.400885    2.953526    0.017682
      8          6           0       -0.928924    2.838934    0.422302
      9          6           0       -1.562068    1.597567    0.380625
     10          6           0       -0.855612    0.477821   -0.050676
     11         35           0       -1.738985   -1.210492   -0.118117
     12          1           0        0.613804   -1.857748    1.373593
     13          1           0        1.506830   -0.408635    1.872104
     14          1           0        2.296048   -1.991606    1.932148
     15          1           0        2.183508   -2.185021   -0.535088
     16          1           0        4.219528   -1.142013    0.364271
     17          1           0        3.444912    0.445890    0.409456
     18          1           0        3.764255   -0.341529   -1.153375
     19          1           0        2.122229    1.913228   -0.766141
     20          1           0        0.894652    3.919931    0.032027
     21          1           0       -1.479046    3.711019    0.760165
     22          1           0       -2.598162    1.490500    0.679903
 ---------------------------------------------------------------------

 SCF Done:  E(RM062X) =  -2998.97110374     A.U. after    1 cycles

      1  C    Isotropic =   165.7344   Anisotropy =    31.3055

      2  C    Isotropic =   104.1100   Anisotropy =    82.2739

      3  C    Isotropic =   161.2387   Anisotropy =    36.3039

      4  O    Isotropic =   196.4597   Anisotropy =   118.3680

      5  C    Isotropic =     8.2704   Anisotropy =   161.4367

      6  C    Isotropic =    37.0978   Anisotropy =   186.0149

      7  C    Isotropic =    34.9792   Anisotropy =   211.6520

      8  C    Isotropic =    39.9918   Anisotropy =   207.4613

      9  C    Isotropic =    29.1960   Anisotropy =   182.9589

     10  C    Isotropic =    29.0639   Anisotropy =   121.0533

     11  Br   Isotropic =  2154.5105   Anisotropy =  1044.7193

     12  H    Isotropic =    29.9692   Anisotropy =     8.9355

     13  H    Isotropic =    31.2737   Anisotropy =     2.9262

     14  H    Isotropic =    31.0666   Anisotropy =    10.5801

     15  H    Isotropic =    27.1503   Anisotropy =     5.5564

     16  H    Isotropic =    30.8165   Anisotropy =    10.1946

     17  H    Isotropic =    30.3661   Anisotropy =     5.5563

     18  H    Isotropic =    30.1684   Anisotropy =     8.7400

     19  H    Isotropic =    23.8836   Anisotropy =     9.5162

     20  H    Isotropic =    23.7554   Anisotropy =     5.7425

     21  H    Isotropic =    23.9952   Anisotropy =     5.1991

     22  H    Isotropic =    23.5381   Anisotropy =    10.7543

 The electronic state is 1-A.
 Alpha  occ. eigenvalues -- -485.37225 -63.35694 -57.17642 -57.17406 -57.17393
 Alpha  occ. eigenvalues --  -19.64052 -10.61027 -10.59889 -10.59601 -10.55572
 Alpha  occ. eigenvalues --  -10.55101 -10.54917 -10.54888 -10.52482 -10.52311
 Alpha  occ. eigenvalues --   -9.02331  -6.84745  -6.83871  -6.83828  -2.88123
 Alpha  occ. eigenvalues --   -2.87812  -2.87766  -2.86951  -2.86950  -1.17555
 Alpha  occ. eigenvalues --   -0.97392  -0.89829  -0.88655  -0.84154  -0.81198
 Alpha  occ. eigenvalues --   -0.78237  -0.71612  -0.69309  -0.65480  -0.58497
 Alpha  occ. eigenvalues --   -0.56715  -0.55646  -0.54597  -0.51481  -0.50004
 Alpha  occ. eigenvalues --   -0.48616  -0.47735  -0.46236  -0.44847  -0.43802
 Alpha  occ. eigenvalues --   -0.43064  -0.42746  -0.40847  -0.38948  -0.37557
 Alpha  occ. eigenvalues --   -0.35443  -0.33989  -0.30830  -0.29134
 Alpha virt. eigenvalues --    0.00888   0.01641   0.03995   0.07415   0.09627
 Alpha virt. eigenvalues --    0.10436   0.10865   0.12664   0.13002   0.13785
 Alpha virt. eigenvalues --    0.14203   0.15292   0.15731   0.16789   0.17138

 Mulliken charges:
               1
     1  C   -0.483850
     2  C    0.054530
     3  C   -0.473189
     4  O   -0.316834
     5  C    0.146515
     6  C   -0.157439
     7  C   -0.173070
     8  C   -0.160786
     9  C   -0.165572
    10  C    0.018867
    11  Br  -0.106219
    12  H    0.165833
    13  H    0.170018
    14  H    0.159464
    15  H    0.139602
    16  H    0.157700
    17  H    0.149618
    18  H    0.167022
    19  H    0.200001
    20  H    0.165604
    21  H    0.165246
    22  H    0.176941
 Sum of Mulliken charges =  -0.00000

 Dipole moment (field-independent basis, Debye):
    X=              1.9715    Y=              1.4350    Z=              1.4572  Tot=              2.8407
 Quadrupole moment (field-independent basis, Debye-Ang):
   XX=            -72.0650   YY=            -70.7090   ZZ=            -82.8240
   XY=             -3.1089   XZ=             -0.7861   YZ=             -0.0963

 Normal termination of Gaussian 16 at Tue Sep 17 11:00:26 2024.
