 Gaussian 16, Revision C.02,

 ----------------------------------------------------------------------
 #p B3LYP/6-31G(d,p) EmpiricalDispersion=GD3BJ opt freq scf(xqc,tight)
 integral(grid=ultrafine)
 ----------------------------------------------------------------------

 ----------------------------------
 opt-freq conformers_unique/conf_ab
 ----------------------------------
 Symbolic Z-matrix:
 Charge =  0 Multiplicity = 1

 SCF Done:  E(RB3LYP) =  -3157.29611168     A.U. after   14 cycles
 SCF Done:  E(RB3LYP) =  -3157.29867474     A.U. after   12 cycles
 SCF Done:  E(RB3LYP) =  -3157.29910513     A.U. after   11 cycles
 SCF Done:  E(RB3LYP) =  -3157.30018102     A.U. after   12 cycles
 SCF Done:  E(RB3LYP) =  -3157.29461892     A.U. after   13 cycles
 SCF Done:  E(RB3LYP) =  -3157.30043832     A.U. after   11 cycles
 SCF Done:  E(RB3LYP) =  -3157.30078510     A.U. after   10 cycles
 SCF Done:  E(RB3LYP) =  -3157.30089593     A.U. after   10 cycles
 SCF Done:  E(RB3LYP) =  -3157.30091009     A.U. after    9 cycles
 SCF Done:  E(RB3LYP) =  -3157.30091158     A.U. after    7 cycles
 SCF Done:  E(RB3LYP) =  -3157.30091192     A.U. after    7 cycles
 SCF Done:  E(RB3LYP) =  -3157.30091197     A.U. after    6 cycles
 Optimization completed.
    -- Stationary point found.
 Normal termination of Gaussian 16 at Tue Sep 17 09:55:59 2024.

 ----------------------------------------------------------------------
 #P Geom=AllCheck Guess=TCheck SCRF=Check GenChk RB3LYP/6-31G(d,p) Freq
 ----------------------------------------------------------------------

 Structure from the checkpoint file:  "smiles_00105_conf_1.chk"
 ----------------------------------
 opt-freq conformers_unique/conf_ab
 ----------------------------------
 Charge =  0 Multiplicity = 1

 SCF Done:  E(RB3LYP) =  -3157.30091197     A.U. after    1 cycles

 The electronic state is 1-A.
 Alpha  occ. eigenvalues -- -482.90738 -61.86813 -56.38791 -56.38417 -56.38406
 Alpha  occ. eigenvalues --  -10.23420 -10.20033 -10.19998 -10.19484 -10.19233
 Alpha  occ. eigenvalues --  -10.19227 -10.19132 -10.18390 -10.18370 -10.17635
 Alpha  occ. eigenvalues --  -10.17624 -10.17521 -10.17492 -10.17063 -10.17056
 Alpha  occ. eigenvalues --   -8.57726  -6.53023  -6.51827  -6.51780  -2.64596
 Alpha  occ. eigenvalues --   -2.64261  -2.64226  -2.63271  -2.63271  -0.87478
 Alpha  occ. eigenvalues --   -0.81904  -0.81356  -0.77928  -0.77198  -0.72436
 Alpha  occ. eigenvalues --   -0.70527  -0.68386  -0.68266  -0.68084  -0.63100
 Alpha  occ. eigenvalues --   -0.60655  -0.59687  -0.55042  -0.53922  -0.49342
 Alpha  occ. eigenvalues --   -0.48384  -0.45396  -0.45065  -0.43798  -0.43494
 Alpha  occ. eigenvalues --   -0.43260  -0.42664  -0.41567  -0.40679  -0.39602
 Alpha  occ. eigenvalues --   -0.38833  -0.38590  -0.38211  -0.37149  -0.36749
 Alpha  occ. eigenvalues --   -0.36671  -0.35721  -0.34539  -0.34175  -0.34132
 Alpha  occ. eigenvalues --   -0.33786  -0.32860  -0.32600  -0.31827  -0.31092
 Alpha  occ. eigenvalues --   -0.29459  -0.27436  -0.23961  -0.22681
 Alpha virt. eigenvalues --   -0.00414  -0.00043   0.01603   0.08606   0.09888
 Alpha virt. eigenvalues --    0.10102   0.11898   0.12316   0.13565   0.14447
 Alpha virt. eigenvalues --    0.14785   0.14978   0.15123   0.15617   0.15886

 Mulliken charges:
               1
     1  C   -0.303352
     2  C   -0.129145
     3  C   -0.303341
     4  C    0.154531
     5  C   -0.169638
     6  C    0.133689
     7  C   -0.122274
     8  C   -0.302304
     9  C   -0.319120
    10  C   -0.056515
    11  Br  -0.141981
    12  C    0.139162
    13  C   -0.123124
    14  C   -0.302358
    15  C   -0.318587
    16  C   -0.187547
    17  H    0.107792
    18  H    0.100082
    19  H    0.102077
    20  H    0.087822
    21  H    0.102828
    22  H    0.099976
    23  H    0.107828
    24  H    0.077645
    25  H    0.114271
    26  H    0.100885
    27  H    0.118028
    28  H    0.099326
    29  H    0.102131
    30  H    0.108232
    31  H    0.101881
    32  H    0.114299
    33  H    0.117945
    34  H    0.099295
    35  H    0.100972
    36  H    0.101756
    37  H    0.108001
    38  H    0.102799
    39  H    0.076032
 Sum of Mulliken charges =  -0.00000

 Dipole moment (field-independent basis, Debye):
    X=             -1.4667    Y=             -0.3383    Z=              0.0899  Tot=              1.5079
 Quadrupole moment (field-independent basis, Debye-Ang):
   XX=           -109.8446   YY=           -106.5958   ZZ=           -114.4730
   XY=             -0.5415   XZ=             -0.1789   YZ=             -0.0876

  Exact polarizability:     212.932      -0.170     196.913       0.616       0.072     122.491
 Approx polarizability:     314.733       5.994     285.482      -5.884      -1.630     182.990

                      1                      2                      3
                      A                      A                      A
 Frequencies --     29.4426                43.1753                81.1997
 Red. masses --      2.8321                 3.6517                 2.9523
 Frc consts  --      0.0014                 0.0040                 0.0115
 IR Inten    --      0.0026                 0.0569                 0.4268

                      4                      5                      6
                      A                      A                      A
 Frequencies --     88.8968               101.5451               133.1349
 Red. masses --      2.5778                 3.4109                 2.9864
 Frc consts  --      0.0120                 0.0207                 0.0312
 IR Inten    --      0.0041                 0.0250                 0.0975

                      7                      8                      9
                      A                      A                      A
 Frequencies --    150.8628               159.1260               177.8565
 Red. masses --      3.4169                 3.1446                 5.8935
 Frc consts  --      0.0458                 0.0469                 0.1098
 IR Inten    --      0.0099                 0.3581                 0.2760

                     10                     11                     12
                      A                      A                      A
 Frequencies --    193.7727               229.9529               237.5370
 Red. masses --      3.2724                 3.8114                 1.0890
 Frc consts  --      0.0724                 0.1187                 0.0362
 IR Inten    --      0.0631                 0.7686                 0.0087

                     13                     14                     15
                      A                      A                      A
 Frequencies --    252.2902               257.1377               259.2292
 Red. masses --      1.1656                 1.1425                 1.0547
 Frc consts  --      0.0437                 0.0445                 0.0418
 IR Inten    --      0.0930                 0.1254                 0.0642

                     16                     17                     18
                      A                      A                      A
 Frequencies --    278.7804               286.7672               292.8592
 Red. masses --      1.6379                 1.0491                 1.3129
 Frc consts  --      0.0750                 0.0508                 0.0663
 IR Inten    --      0.0380                 0.1784                 0.1495

                     19                     20                     21
                      A                      A                      A
 Frequencies --    311.4880               333.8761               349.1319
 Red. masses --      3.1378                 2.9815                 2.7533
 Frc consts  --      0.1794                 0.1958                 0.1977
 IR Inten    --      0.0132                 1.4696                 0.8068

                     22                     23                     24
                      A                      A                      A
 Frequencies --    378.3089               386.8480               405.1783
 Red. masses --      3.5591                 2.5010                 4.1424
 Frc consts  --      0.3001                 0.2205                 0.4007
 IR Inten    --      0.5623                 0.1196                 1.8753

                     25                     26                     27
                      A                      A                      A
 Frequencies --    440.4632               480.4379               525.0133
 Red. masses --      2.4855                 2.8221                 4.3895
 Frc consts  --      0.2841                 0.3838                 0.7129
 IR Inten    --      0.0160                 0.1886                 2.1110

                     28                     29                     30
                      A                      A                      A
 Frequencies --    571.0818               608.8703               627.1280
 Red. masses --      3.0597                 3.3514                 3.1078
 Frc consts  --      0.5879                 0.7320                 0.7201
 IR Inten    --      0.3632                 6.7262                 3.9165

                     31                     32                     33
                      A                      A                      A
 Frequencies --    646.2777               664.4518               771.3352
 Red. masses --      3.7410                 3.7222                 3.4419
 Frc consts  --      0.9206                 0.9682                 1.2065
 IR Inten    --      0.3855                 2.4625                 2.2352

                     34                     35                     36
                      A                      A                      A
 Frequencies --    830.3053               851.1311               896.0265
 Red. masses --      3.6500                 3.1469                 2.4413
 Frc consts  --      1.4826                 1.3431                 1.1548
 IR Inten    --      0.4949                 0.6793                 0.1076

                     37                     38                     39
                      A                      A                      A
 Frequencies --    906.3499               910.9344               937.3695
 Red. masses --      1.6091                 1.3792                 1.1800
 Frc consts  --      0.7788                 0.6743                 0.6109
 IR Inten    --     11.5012                 0.9641                 0.7965

                     40                     41                     42
                      A                      A                      A
 Frequencies --    940.9459               942.4357               956.4755
 Red. masses --      1.2910                 1.1871                 2.0897
 Frc consts  --      0.6735                 0.6212                 1.1264
 IR Inten    --      0.0967                 1.9423                 4.2072

                     43                     44                     45
                      A                      A                      A
 Frequencies --    960.8240               969.7297               977.8502
 Red. masses --      2.1366                 1.4961                 1.4766
 Frc consts  --      1.1621                 0.8289                 0.8319
 IR Inten    --      7.6188                 0.0908                 0.0617

                     46                     47                     48
                      A                      A                      A
 Frequencies --    981.0184              1034.4950              1085.9357
 Red. masses --      1.5411                 7.5948                 1.5316
 Frc consts  --      0.8739                 4.7888                 1.0642
 IR Inten    --      4.6422                47.5738                12.2498

                     49                     50                     51
                      A                      A                      A
 Frequencies --   1103.0098              1129.9859              1130.8531
 Red. masses --      1.6153                 2.2705                 1.7024
 Frc consts  --      1.1579                 1.7082                 1.2827
 IR Inten    --      2.8640                 1.2988                 9.0652

                     52                     53                     54
                      A                      A                      A
 Frequencies --   1133.0662              1142.2979              1174.3261
 Red. masses --      2.2457                 2.1832                 1.7804
 Frc consts  --      1.6986                 1.6784                 1.4466
 IR Inten    --      0.8442                 7.5281                 2.1265

                     55                     56                     57
                      A                      A                      A
 Frequencies --   1189.5652              1208.1618              1225.8038
 Red. masses --      1.9131                 1.9209                 1.6042
 Frc consts  --      1.5950                 1.6520                 1.4202
 IR Inten    --      2.5148                11.0364                 1.0889

                     58                     59                     60
                      A                      A                      A
 Frequencies --   1283.8630              1302.7386              1316.5770
 Red. masses --      1.5203                 2.3844                 4.1150
 Frc consts  --      1.4765                 2.3842                 4.2026
 IR Inten    --      9.4408                 1.2061                 1.6150

                     61                     62                     63
                      A                      A                      A
 Frequencies --   1342.2178              1344.0436              1352.7163
 Red. masses --      1.4034                 1.3878                 1.3266
 Frc consts  --      1.4896                 1.4771                 1.4303
 IR Inten    --      5.3697                 1.3156                 2.4641

                     64                     65                     66
                      A                      A                      A
 Frequencies --   1360.5712              1379.9967              1394.6251
 Red. masses --      1.5860                 1.9176                 1.5715
 Frc consts  --      1.7298                 2.1516                 1.8008
 IR Inten    --     14.4556                 4.2898                 6.1317

                     67                     68                     69
                      A                      A                      A
 Frequencies --   1409.9672              1410.6906              1412.5685
 Red. masses --      1.2474                 1.2447                 1.2338
 Frc consts  --      1.4611                 1.4594                 1.4505
 IR Inten    --      6.9107                 0.9868                 3.6717

                     70                     71                     72
                      A                      A                      A
 Frequencies --   1430.9397              1432.2793              1433.5708
 Red. masses --      1.2457                 1.2374                 1.2318
 Frc consts  --      1.5028                 1.4956                 1.4915
 IR Inten    --      2.2081                 6.1575                 0.4617

                     73                     74                     75
                      A                      A                      A
 Frequencies --   1472.2023              1474.9738              1501.2555
 Red. masses --      2.5180                 2.4921                 1.0439
 Frc consts  --      3.2154                 3.1944                 1.3862
 IR Inten    --     19.9825                21.0573                 0.1029

                     76                     77                     78
                      A                      A                      A
 Frequencies --   1503.1845              1504.2059              1505.1509
 Red. masses --      1.0439                 1.0457                 1.0479
 Frc consts  --      1.3898                 1.3940                 1.3987
 IR Inten    --      3.3534                 3.2437                 0.8930

                     79                     80                     81
                      A                      A                      A
 Frequencies --   1507.7437              1508.6708              1516.9117
 Red. masses --      1.0617                 1.0939                 1.0490
 Frc consts  --      1.4220                 1.4669                 1.4221
 IR Inten    --      0.2416                 3.5955                 7.2523

                     82                     83                     84
                      A                      A                      A
 Frequencies --   1523.1597              1523.4502              1524.1422
 Red. masses --      1.0481                 1.0517                 1.0703
 Frc consts  --      1.4326                 1.4382                 1.4648
 IR Inten    --     11.7829                 2.0946                 4.1738

                     85                     86                     87
                      A                      A                      A
 Frequencies --   1528.1325              1529.4208              1629.0877
 Red. masses --      1.0570                 1.0604                 7.4910
 Frc consts  --      1.4543                 1.4614                11.7133
 IR Inten    --      2.5032                 5.0079                 7.6892

                     88                     89                     90
                      A                      A                      A
 Frequencies --   1646.8816              3034.0822              3040.1883
 Red. masses --      5.1622                 1.0843                 1.0347
 Frc consts  --      8.2491                 5.8812                 5.6347
 IR Inten    --      4.1852                15.2636                22.0138

                     91                     92                     93
                      A                      A                      A
 Frequencies --   3041.4712              3041.7144              3044.0923
 Red. masses --      1.0356                 1.0356                 1.0355
 Frc consts  --      5.6442                 5.6450                 5.6538
 IR Inten    --     12.7873                36.3389                27.9994

                     94                     95                     96
                      A                      A                      A
 Frequencies --   3044.9809              3045.3842              3059.1062
 Red. masses --      1.0383                 1.0383                 1.0811
 Frc consts  --      5.6720                 5.6735                 5.9609
 IR Inten    --     50.3753                 9.7007                 5.4421

                     97                     98                     99
                      A                      A                      A
 Frequencies --   3059.5425              3108.8694              3108.9541
 Red. masses --      1.0813                 1.1026                 1.1023
 Frc consts  --      5.9636                 6.2787                 6.2774
 IR Inten    --      6.4573                 0.0021                 2.1307

                    100                    101                    102
                      A                      A                      A
 Frequencies --   3109.2639              3114.8846              3115.7222
 Red. masses --      1.1024                 1.1017                 1.1014
 Frc consts  --      6.2793                 6.2982                 6.2998
 IR Inten    --      2.3156               105.0693                19.5130

                    103                    104                    105
                      A                      A                      A
 Frequencies --   3116.1956              3121.1958              3122.6483
 Red. masses --      1.1013                 1.1029                 1.1032
 Frc consts  --      6.3010                 6.3303                 6.3377
 IR Inten    --     81.3909                19.6284                32.1009

                    106                    107                    108
                      A                      A                      A
 Frequencies --   3122.8017              3122.9220              3137.8311
 Red. masses --      1.1030                 1.1027                 1.1010
 Frc consts  --      6.3373                 6.3360                 6.3868
 IR Inten    --     48.8288                12.4913                28.9943

                    109                    110                    111
                      A                      A                      A
 Frequencies --   3137.9474              3199.0852              3206.3037
 Red. masses --      1.1010                 1.0887                 1.0883
 Frc consts  --      6.3875                 6.5649                 6.5921
 IR Inten    --      6.7010                10.0797                 9.6246

 - Thermochemistry -
 -------------------
 Temperature   298.150 Kelvin.  Pressure   1.00000 Atm.
 Atom     1 has atomic number  6 and mass  12.00000

 Molecular mass:   282.09831 amu.
 Principal axes and moments of inertia in atomic units:
                           1         2         3
     Eigenvalues --  3833.779765638.848488503.17628
           X            0.99827  -0.05786   0.01010
           Y            0.05783   0.99832   0.00303
           Z           -0.01026  -0.00244   0.99994
 This molecule is an asymmetric top.
 Rotational symmetry number  1.
 Warning -- assumption of classical behavior for rotation
           may cause significant error
 Rotational temperatures (Kelvin)      0.02259     0.01536     0.01019
 Rotational constants (GHZ):           0.47075     0.32005     0.21224
 Zero-point vibrational energy     906969.6 (Joules/Mol)
                                  216.77094 (Kcal/Mol)
 Warning -- explicit consideration of  29 degrees of freedom as
           vibrations may cause significant error
 Vibrational temperatures:     42.36    62.12   116.83   127.90   146.10
          (Kelvin)            191.55   217.06   228.95   255.90   278.80
                              330.85   341.76   362.99   369.96   372.97
                              401.10   412.59   421.36   448.16   480.37
                              502.32   544.30   556.59   582.96   633.73
                              691.24   755.38   821.66   876.03   902.30
                              929.85   956.00  1109.78  1194.62  1224.59
                             1289.18  1304.04  1310.63  1348.67  1353.81
                             1355.95  1376.15  1382.41  1395.22  1406.91
                             1411.47  1488.41  1562.42  1586.99  1625.80
                             1627.05  1630.23  1643.51  1689.59  1711.52
                             1738.28  1763.66  1847.19  1874.35  1894.26
                             1931.15  1933.78  1946.26  1957.56  1985.51
                             2006.55  2028.63  2029.67  2032.37  2058.80
                             2060.73  2062.59  2118.17  2122.16  2159.97
                             2162.75  2164.22  2165.58  2169.31  2170.64
                             2182.50  2191.49  2191.91  2192.90  2198.64
                             2200.50  2343.89  2369.50  4365.37  4374.15
                             4376.00  4376.35  4379.77  4381.05  4381.63
                             4401.37  4402.00  4472.97  4473.09  4473.54
                             4481.62  4482.83  4483.51  4490.70  4492.79
                             4493.02  4493.19  4514.64  4514.81  4602.77
                             4613.16

 Zero-point correction=                           0.345446 (Hartree/Particle)
 Thermal correction to Energy=                    0.363870
 Thermal correction to Enthalpy=                  0.364815
 Thermal correction to Gibbs Free Energy=         0.299164
 Sum of electronic and zero-point Energies=          -3156.955465
 Sum of electronic and thermal Energies=             -3156.937042
 Sum of electronic and thermal Enthalpies=           -3156.936097
 Sum of electronic and thermal Free Energies=        -3157.001747

                     E (Thermal)             CV                S
                      KCal/Mol        Cal/Mol-Kelvin    Cal/Mol-Kelvin
 Total                  228.332             69.622            138.172
 Electronic               0.000              0.000              0.000
 Translational            0.889              2.981             42.809
 Rotational               0.889              2.981             33.574
 Vibrational            226.555             63.661             61.789
 Vibration     1          0.593              1.984              5.867
 Vibration     2          0.595              1.980              5.108
 Vibration     3          0.600              1.962              3.862
 Vibration     4          0.602              1.957              3.684
 Vibration     5          0.604              1.948              3.424
 Vibration     6          0.613              1.920              2.900
 Vibration     7          0.618              1.902              2.661
 Vibration     8          0.621              1.892              2.560
 Vibration     9          0.628              1.870              2.351
 Vibration    10          0.635              1.849              2.191
 Vibration    11          0.652              1.795              1.879
 Vibration    12          0.656              1.783              1.821
 Vibration    13          0.664              1.759              1.715
 Vibration    14          0.667              1.751              1.681
 Vibration    15          0.668              1.747              1.667
 Vibration    16          0.679              1.713              1.541
 Vibration    17          0.684              1.698              1.493
 Vibration    18          0.688              1.687              1.457
 Vibration    19          0.700              1.652              1.354
 Vibration    20          0.715              1.608              1.241
 Vibration    21          0.726              1.577              1.170
 Vibration    22          0.749              1.516              1.046
 Vibration    23          0.755              1.498              1.012
 Vibration    24          0.770              1.459              0.944
 Vibration    25          0.800              1.382              0.825
 Vibration    26          0.837              1.293              0.709
 Vibration    27          0.880              1.195              0.598
 Vibration    28          0.927              1.094              0.502
 Vibration    29          0.968              1.013              0.435

                           ! Non-Optimized Parameters !
 Normal termination of Gaussian 16 at Tue Sep 17 10:03:31 2024.
 Gaussian 16:  ES64L-G16RevC.02  7-Dec-2021

 ----------------------------------------------------------------------
 #p M062X/def2tzvp geom=check guess=read scf(xqc,tight) integral(grid=u
 ltrafine) scrf(SMD, solvent=1,4-Dioxane) polar prop=efg volume
 ----------------------------------------------------------------------

 ---
 spe
 ---
 Structure from the checkpoint file:  "smiles_00105_conf_1.chk"
 Charge =  0 Multiplicity = 1

                         Standard orientation:
 ---------------------------------------------------------------------
 Center     Atomic      Atomic             Coordinates (Angstroms)
 Number     Number       Type             X           Y           Z
 ---------------------------------------------------------------------
      1          6           0       -4.102390   -0.357100    1.368890
      2          6           0       -3.467980   -0.897809    0.076985
      3          6           0       -4.235118   -0.409085   -1.162643
      4          6           0       -1.992204   -0.548661   -0.007789
      5          6           0       -1.570076    0.782099   -0.053228
      6          6           0       -0.220164    1.134614   -0.131768
      7          6           0        0.212372    2.593436   -0.136532
      8          6           0        0.660623    3.012595    1.276612
      9          6           0       -0.851591    3.555232   -0.676830
     10          6           0        0.709886    0.083161   -0.160589
     11         35           0        2.588278    0.523693   -0.245951
     12          6           0        0.344482   -1.269483   -0.124599
     13          6           0        1.378814   -2.385298   -0.120994
     14          6           0        1.963189   -2.554563    1.294453
     15          6           0        0.853435   -3.722038   -0.655848
     16          6           0       -1.024685   -1.551336   -0.046556
     17          1           0       -3.571745   -0.724468    2.252126
     18          1           0       -5.150797   -0.664068    1.444043
     19          1           0       -4.073080    0.737383    1.393237
     20          1           0       -3.540222   -1.992580    0.103329
     21          1           0       -4.209554    0.683351   -1.235324
     22          1           0       -5.285263   -0.715649   -1.114734
     23          1           0       -3.799470   -0.814482   -2.080516
     24          1           0       -2.312291    1.571683   -0.029368
     25          1           0        1.085412    2.663949   -0.794360
     26          1           0       -0.178632    2.948683    1.977419
     27          1           0        1.461556    2.363818    1.638110
     28          1           0        1.028062    4.044113    1.274867
     29          1           0       -1.708455    3.640062   -0.000037
     30          1           0       -1.221738    3.239339   -1.656799
     31          1           0       -0.423653    4.556798   -0.780605
     32          1           0        2.194230   -2.064401   -0.778291
     33          1           0        2.392539   -1.615832    1.651635
     34          1           0        2.750006   -3.316113    1.298455
     35          1           0        1.181340   -2.865801    1.995437
     36          1           0        1.681518   -4.430598   -0.752233
     37          1           0        0.385805   -3.608575   -1.638467
     38          1           0        0.120074   -4.173798    0.020471
     39          1           0       -1.346932   -2.586654   -0.017496
 ---------------------------------------------------------------------

 SCF Done:  E(RM062X) =  -3159.60442178     A.U. after   12 cycles
