 Gaussian 16, Revision C.02,

 ----------------------------------------------------------------------
 #p B3LYP/6-31G(d,p) EmpiricalDispersion=GD3BJ opt freq scf(xqc,tight)
 integral(grid=ultrafine)
 ----------------------------------------------------------------------

 ----------------------------------
 opt-freq conformers_unique/conf_aa
 ----------------------------------
 Symbolic Z-matrix:
 Charge =  0 Multiplicity = 1

 SCF Done:  E(RB3LYP) =  -3156.45210350     A.U. after   14 cycles
 SCF Done:  E(RB3LYP) =  -3156.45350270     A.U. after   12 cycles
 SCF Done:  E(RB3LYP) =  -3156.45366975     A.U. after   11 cycles
 SCF Done:  E(RB3LYP) =  -3156.45368792     A.U. after    9 cycles
 Optimization completed.
    -- Stationary point found.
 Normal termination of Gaussian 16 at Tue Sep 17 09:54:31 2024.

 ----------------------------------------------------------------------
 #P Geom=AllCheck Guess=TCheck SCRF=Check GenChk RB3LYP/6-31G(d,p) Freq
 ----------------------------------------------------------------------

 Structure from the checkpoint file:  "smiles_00120_conf_0.chk"
 ----------------------------------
 opt-freq conformers_unique/conf_aa
 ----------------------------------
 Charge =  0 Multiplicity = 1

 SCF Done:  E(RB3LYP) =  -3156.45368792     A.U. after    1 cycles

                      1                      2                      3
                      A                      A                      A
 Frequencies --     62.8927               115.0838               137.2290
 Red. masses --     18.2373                 5.6173                25.0249
 Frc consts  --      0.0425                 0.0438                 0.2777
 IR Inten    --      0.0911                 1.4428                 0.3409

                      4                      5                      6
                      A                      A                      A
 Frequencies --    176.4804               261.9611               270.6285
 Red. masses --      6.8627                 8.7618                19.0533
 Frc consts  --      0.1259                 0.3543                 0.8222
 IR Inten    --      0.0642                 0.5563                 1.1104

                      7                      8                      9
                      A                      A                      A
 Frequencies --    339.8083               385.3815               430.9866
 Red. masses --      7.6172                11.4373                 9.7286
 Frc consts  --      0.5182                 1.0008                 1.0647
 IR Inten    --      1.8530                 3.7362                 4.8716

                     10                     11                     12
                      A                      A                      A
 Frequencies --    441.7988               512.9425               580.1034
 Red. masses --      3.6232                11.7442                12.4292
 Frc consts  --      0.4167                 1.8206                 2.4644
 IR Inten    --      0.7417                 0.0124                 0.9696

                     13                     14                     15
                      A                      A                      A
 Frequencies --    622.5157               660.7687               722.4391
 Red. masses --      5.1699                 9.7419                 8.2521
 Frc consts  --      1.1804                 2.5061                 2.5376
 IR Inten    --      9.4411                34.3278                 6.9117

                     16                     17                     18
                      A                      A                      A
 Frequencies --    771.1705               790.7259               864.4633
 Red. masses --      4.7976                10.4323                 1.3077
 Frc consts  --      1.6810                 3.8431                 0.5758
 IR Inten    --      1.3338                 2.1062                24.3871

                     19                     20                     21
                      A                      A                      A
 Frequencies --    958.7320               994.1529              1036.9015
 Red. masses --      1.3830                 1.4208                 8.2221
 Frc consts  --      0.7490                 0.8274                 5.2085
 IR Inten    --      0.2032                 0.8841                34.2462

                     22                     23                     24
                      A                      A                      A
 Frequencies --   1098.6587              1130.9664              1195.8869
 Red. masses --      3.5573                 2.4741                 3.9228
 Frc consts  --      2.5299                 1.8645                 3.3054
 IR Inten    --     38.0685                34.6339                78.7154

                     25                     26                     27
                      A                      A                      A
 Frequencies --   1207.3032              1228.8640              1292.7967
 Red. masses --     12.8798                 2.5235                 3.1883
 Frc consts  --     11.0610                 2.2452                 3.1396
 IR Inten    --    235.6796                97.1004                35.7931

                     28                     29                     30
                      A                      A                      A
 Frequencies --   1315.0189              1341.2738              1439.9741
 Red. masses --      3.1159                 3.0708                 1.9326
 Frc consts  --      3.1747                 3.2548                 2.3610
 IR Inten    --     76.6534               215.2028                50.0003

                     31                     32                     33
                      A                      A                      A
 Frequencies --   1517.0158              1607.3342              1636.6612
 Red. masses --      2.4124                 8.2668                 6.2772
 Frc consts  --      3.2709                12.5834                 9.9069
 IR Inten    --     10.0393                 4.2518                 0.1925

                     34                     35                     36
                      A                      A                      A
 Frequencies --   3186.0462              3193.6115              3237.8418
 Red. masses --      1.0899                 1.0928                 1.0932
 Frc consts  --      6.5182                 6.5667                 6.7524
 IR Inten    --     17.0253                 2.5907                 1.4439

 - Thermochemistry -
 -------------------
 Temperature   298.150 Kelvin.  Pressure   1.00000 Atm.
 Atom     1 has atomic number  9 and mass  18.99840

 Molecular mass:   224.94009 amu.
 Principal axes and moments of inertia in atomic units:
                           1         2         3
     Eigenvalues --  1939.071712172.154703789.75351
           X            0.97349   0.22875  -0.00000
           Y           -0.22875   0.97349   0.00000
           Z            0.00000   0.00000   1.00000
 This molecule is an asymmetric top.
 Rotational symmetry number  1.
 Warning -- assumption of classical behavior for rotation
           may cause significant error
 Rotational temperatures (Kelvin)      0.04467     0.03987     0.02285
 Rotational constants (GHZ):           0.93072     0.83085     0.47622
 Zero-point vibrational energy     219912.0 (Joules/Mol)
                                   52.56024 (Kcal/Mol)
 Warning -- explicit consideration of  12 degrees of freedom as
           vibrations may cause significant error
 Vibrational temperatures:     90.49   165.58   197.44   253.92   376.90
          (Kelvin)            389.37   488.91   554.48   620.09   635.65
                              738.01   834.64   895.66   950.70  1039.43
                             1109.54  1137.68  1243.77  1379.40  1430.36
                             1491.87  1580.72  1627.21  1720.61  1737.04
                             1768.06  1860.05  1892.02  1929.79  2071.80
                             2182.65  2312.60  2354.79  4584.01  4594.89
                             4658.53

 Zero-point correction=                           0.083760 (Hartree/Particle)
 Thermal correction to Energy=                    0.092801
 Thermal correction to Enthalpy=                  0.093745
 Thermal correction to Gibbs Free Energy=         0.047852
 Sum of electronic and zero-point Energies=          -3156.369928
 Sum of electronic and thermal Energies=             -3156.360887
 Sum of electronic and thermal Enthalpies=           -3156.359943
 Sum of electronic and thermal Free Energies=        -3156.405836

                     E (Thermal)             CV                S
                      KCal/Mol        Cal/Mol-Kelvin    Cal/Mol-Kelvin
 Total                   58.233             32.855             96.591
 Electronic               0.000              0.000              0.000
 Translational            0.889              2.981             42.134
 Rotational               0.889              2.981             31.146
 Vibrational             56.456             26.893             23.310
 Vibration     1          0.597              1.972              4.364
 Vibration     2          0.608              1.937              3.181
 Vibration     3          0.614              1.916              2.842
 Vibration     4          0.628              1.871              2.365
 Vibration     5          0.669              1.742              1.649
 Vibration     6          0.674              1.727              1.592
 Vibration     7          0.720              1.596              1.213
 Vibration     8          0.754              1.501              1.018
 Vibration     9          0.792              1.403              0.855
 Vibration    10          0.802              1.379              0.821
 Vibration    11          0.868              1.221              0.627
 Vibration    12          0.937              1.074              0.485

 Optimization completed.
    -- Stationary point found.
 Normal termination of Gaussian 16 at Tue Sep 17 09:55:14 2024.

 ----------------------------------------------------------------------
 #p M062X/def2tzvp geom=check guess=read scf(xqc,tight) integral(grid=u
 ltrafine) scrf(SMD, solvent=1,4-Dioxane) polar prop=efg volume
 ----------------------------------------------------------------------

 ---
 spe
 ---
 Structure from the checkpoint file:  "smiles_00120_conf_0.chk"
 Charge =  0 Multiplicity = 1

 SCF Done:  E(RM062X) =  -3158.95103717     A.U. after   12 cycles

  Exact polarizability:     142.547       8.793     114.635      -0.001      -0.000      64.447
 Approx polarizability:     156.989       7.369     129.211      -0.001      -0.001      80.645

 Normal termination of Gaussian 16 at Tue Sep 17 10:18:13 2024.
 Gaussian 16:  ES64L-G16RevC.02  7-Dec-2021

 ----------------------------------------------------------------------
 #p M062X/def2tzvp geom=check guess=read scf(xqc,tight) integral(grid=u
 ltrafine) scrf(SMD, solvent=1,4-Dioxane) nmr=giao
 ----------------------------------------------------------------------

 ---
 spe
 ---
 Structure from the checkpoint file:  "smiles_00120_conf_0.chk"
 Charge =  0 Multiplicity = 1

                         Standard orientation:
 ---------------------------------------------------------------------
 Center     Atomic      Atomic             Coordinates (Angstroms)
 Number     Number       Type             X           Y           Z
 ---------------------------------------------------------------------
      1          9           0       -0.021161    1.966358   -1.088514
      2          6           0       -0.704702    1.562958   -0.000006
      3          9           0       -1.885215    2.216369    0.000278
      4          9           0       -0.020705    1.966191    1.088267
      5          6           0       -0.908689    0.065179   -0.000058
      6          6           0       -2.197902   -0.465778    0.000023
      7          6           0       -2.359633   -1.849727    0.000028
      8          7           0       -1.335210   -2.709648   -0.000004
      9          6           0       -0.100613   -2.204010   -0.000050
     10          6           0        0.162531   -0.831676   -0.000079
     11         35           0        1.972246   -0.258197    0.000015
     12          1           0       -3.055675    0.194904    0.000059
     13          1           0       -3.355626   -2.284663    0.000070
     14          1           0        0.726936   -2.907758   -0.000033
 ---------------------------------------------------------------------

 SCF Done:  E(RM062X) =  -3158.95103717     A.U. after    1 cycles

      1  F    Isotropic =   240.3772   Anisotropy =   137.9636

      2  C    Isotropic =    52.0963   Anisotropy =    17.0540

      3  F    Isotropic =   254.4935   Anisotropy =   130.9350

      4  F    Isotropic =   240.3790   Anisotropy =   137.9395

      5  C    Isotropic =    22.0178   Anisotropy =   193.5862

      6  C    Isotropic =    43.6790   Anisotropy =   201.7160

      7  C    Isotropic =    10.6819   Anisotropy =   209.3662

      8  N    Isotropic =  -162.5662   Anisotropy =   672.8305

      9  C    Isotropic =     6.0555   Anisotropy =   180.5037

     10  C    Isotropic =    30.1469   Anisotropy =   155.7532

     11  Br   Isotropic =  2119.7537   Anisotropy =  1078.8675

     12  H    Isotropic =    23.4301   Anisotropy =    10.2367

     13  H    Isotropic =    22.1586   Anisotropy =     7.4925

     14  H    Isotropic =    22.0638   Anisotropy =    12.4183

 The electronic state is 1-A.
 Alpha  occ. eigenvalues -- -485.39392 -63.37863 -57.19819 -57.19568 -57.19556
 Alpha  occ. eigenvalues --  -25.29451 -25.29147 -25.29147 -14.77855 -10.81793
 Alpha  occ. eigenvalues --  -10.63223 -10.60882 -10.60541 -10.60000 -10.58163
 Alpha  occ. eigenvalues --   -9.04506  -6.86954  -6.86021  -6.85983  -2.90331
 Alpha  occ. eigenvalues --   -2.89997  -2.89958  -2.89089  -2.89088  -1.47540
 Alpha  occ. eigenvalues --   -1.38624  -1.38454  -1.08291  -0.97175  -0.91967
 Alpha  occ. eigenvalues --   -0.85675  -0.83317  -0.75569  -0.73817  -0.70356
 Alpha  occ. eigenvalues --   -0.70025  -0.67695  -0.59790  -0.58783  -0.58373
 Alpha  occ. eigenvalues --   -0.57743  -0.55446  -0.54872  -0.53797  -0.52782
 Alpha  occ. eigenvalues --   -0.50605  -0.50488  -0.48391  -0.44853  -0.41135
 Alpha  occ. eigenvalues --   -0.37453  -0.37164  -0.34965  -0.32213
 Alpha virt. eigenvalues --   -0.03509  -0.01290   0.02330   0.09599   0.10677
 Alpha virt. eigenvalues --    0.12404   0.12855   0.13619   0.14557   0.17491
 Alpha virt. eigenvalues --    0.17628   0.18956   0.20391   0.21401   0.22467

 Mulliken charges:
               1
     1  F   -0.170765
     2  C    0.528749
     3  F   -0.179181
     4  F   -0.170758
     5  C   -0.021525
     6  C   -0.135547
     7  C   -0.049258
     8  N   -0.226168
     9  C   -0.066911
    10  C   -0.001676
    11  Br  -0.045987
    12  H    0.182582
    13  H    0.173988
    14  H    0.182459
 Sum of Mulliken charges =  -0.00000

 Dipole moment (field-independent basis, Debye):
    X=             -1.5076    Y=             -0.7287    Z=              0.0001  Tot=              1.6745
 Quadrupole moment (field-independent basis, Debye-Ang):
   XX=            -64.6551   YY=            -80.6627   ZZ=            -75.4828
   XY=             -0.9909   XZ=             -0.0000   YZ=              0.0001

 Normal termination of Gaussian 16 at Tue Sep 17 10:27:11 2024.
