 Gaussian 16, Revision C.02,

 ----------------------------------------------------------------------
 #p B3LYP/6-31G(d,p) EmpiricalDispersion=GD3BJ opt freq scf(xqc,tight)
 integral(grid=ultrafine)
 ----------------------------------------------------------------------

 ----------------------------------
 opt-freq conformers_unique/conf_ac
 ----------------------------------
 Symbolic Z-matrix:
 Charge =  0 Multiplicity = 1

 SCF Done:  E(RB3LYP) =  -3110.64523230     A.U. after   15 cycles
 SCF Done:  E(RB3LYP) =  -3110.64643404     A.U. after   12 cycles
 SCF Done:  E(RB3LYP) =  -3110.64646174     A.U. after   11 cycles
 SCF Done:  E(RB3LYP) =  -3110.64652013     A.U. after   10 cycles
 SCF Done:  E(RB3LYP) =  -3110.64652253     A.U. after   11 cycles
 SCF Done:  E(RB3LYP) =  -3110.64653679     A.U. after    8 cycles
 SCF Done:  E(RB3LYP) =  -3110.64654710     A.U. after   10 cycles
 SCF Done:  E(RB3LYP) =  -3110.64655027     A.U. after    9 cycles
 SCF Done:  E(RB3LYP) =  -3110.64655050     A.U. after    8 cycles
 SCF Done:  E(RB3LYP) =  -3110.64655057     A.U. after    7 cycles
 SCF Done:  E(RB3LYP) =  -3110.64655061     A.U. after    7 cycles
 SCF Done:  E(RB3LYP) =  -3110.64655064     A.U. after    7 cycles
 SCF Done:  E(RB3LYP) =  -3110.64655065     A.U. after    7 cycles
 Optimization completed.
    -- Stationary point found.
 Normal termination of Gaussian 16 at Tue Sep 17 09:54:11 2024.

 ----------------------------------------------------------------------
 #P Geom=AllCheck Guess=TCheck SCRF=Check GenChk RB3LYP/6-31G(d,p) Freq
 ----------------------------------------------------------------------

 Structure from the checkpoint file:  "smiles_00081_conf_2.chk"
 ----------------------------------
 opt-freq conformers_unique/conf_ac
 ----------------------------------
 Charge =  0 Multiplicity = 1

 SCF Done:  E(RB3LYP) =  -3110.64655065     A.U. after    1 cycles

                      1                      2                      3
                      A                      A                      A
 Frequencies --     38.0656                54.7387                96.5467
 Red. masses --      3.9379                 7.7192                 8.3389
 Frc consts  --      0.0034                 0.0136                 0.0458
 IR Inten    --      1.4293                 2.6324                 1.1287

                      4                      5                      6
                      A                      A                      A
 Frequencies --    155.7377               210.4455               219.0258
 Red. masses --      6.9000                 4.4670                 2.0521
 Frc consts  --      0.0986                 0.1166                 0.0580
 IR Inten    --      0.4921                 0.0500                 0.0758

                      7                      8                      9
                      A                      A                      A
 Frequencies --    229.8531               252.8654               291.0924
 Red. masses --      1.9557                11.1732                 5.1742
 Frc consts  --      0.0609                 0.4209                 0.2583
 IR Inten    --      0.4457                 2.1472                 3.6147

                     10                     11                     12
                      A                      A                      A
 Frequencies --    356.2300               409.8136               457.3334
 Red. masses --      5.8850                 6.2053                 3.2141
 Frc consts  --      0.4400                 0.6140                 0.3961
 IR Inten    --      1.8601                 8.5624                 2.4164

                     13                     14                     15
                      A                      A                      A
 Frequencies --    494.6896               533.7636               552.4490
 Red. masses --      4.7481                 2.3802                 3.8868
 Frc consts  --      0.6846                 0.3995                 0.6989
 IR Inten    --     19.9806                18.5988                 3.5332

                     16                     17                     18
                      A                      A                      A
 Frequencies --    586.0789               592.6725               670.3418
 Red. masses --      4.6969                 4.4999                 2.0494
 Frc consts  --      0.9506                 0.9313                 0.5426
 IR Inten    --      0.5498                 5.2995                63.8838

                     19                     20                     21
                      A                      A                      A
 Frequencies --    682.8960               704.3524               799.9225
 Red. masses --      3.0675                 4.5342                 3.7214
 Frc consts  --      0.8428                 1.3254                 1.4030
 IR Inten    --     31.7221                 4.2459                 5.7299

                     22                     23                     24
                      A                      A                      A
 Frequencies --    830.0271               879.5582               882.5306
 Red. masses --      1.4412                 4.1373                 1.5666
 Frc consts  --      0.5850                 1.8858                 0.7189
 IR Inten    --     18.4786                58.6793                23.3204

                     25                     26                     27
                      A                      A                      A
 Frequencies --    934.1941               956.4290              1029.4683
 Red. masses --      4.2136                 1.3091                 1.5985
 Frc consts  --      2.1666                 0.7056                 0.9981
 IR Inten    --      8.5062                 0.6313                26.5595

                     28                     29                     30
                      A                      A                      A
 Frequencies --   1057.3443              1095.7330              1148.7629
 Red. masses --      1.7335                 1.8311                 2.0148
 Frc consts  --      1.1418                 1.2953                 1.5666
 IR Inten    --      8.6793                 9.4529                17.7606

                     31                     32                     33
                      A                      A                      A
 Frequencies --   1218.4961              1268.5146              1317.9415
 Red. masses --      1.7322                 1.8071                 3.1119
 Frc consts  --      1.5153                 1.7133                 3.1847
 IR Inten    --      4.0555                45.3058                69.5537

                     34                     35                     36
                      A                      A                      A
 Frequencies --   1336.0090              1364.9036              1412.1049
 Red. masses --      2.8782                 3.6360                 1.4562
 Frc consts  --      3.0268                 3.9910                 1.7109
 IR Inten    --    256.2960                75.4598               115.4752

                     37                     38                     39
                      A                      A                      A
 Frequencies --   1457.3215              1479.3293              1487.5531
 Red. masses --      3.4283                 1.9574                 1.0625
 Frc consts  --      4.2899                 2.5238                 1.3852
 IR Inten    --     25.8720                24.6556                18.7619

                     40                     41                     42
                      A                      A                      A
 Frequencies --   1501.4456              1550.8940              1635.4025
 Red. masses --      1.0700                 3.3399                 6.9216
 Frc consts  --      1.4212                 4.7331                10.9070
 IR Inten    --     10.4542               318.7490                20.4945

                     43                     44                     45
                      A                      A                      A
 Frequencies --   1662.2506              1799.2914              3061.5960
 Red. masses --      7.1086                 8.2014                 1.0390
 Frc consts  --     11.5724                15.6438                 5.7382
 IR Inten    --      4.8309               504.3494                 2.9649

                     46                     47                     48
                      A                      A                      A
 Frequencies --   3133.2921              3175.9722              3225.3437
 Red. masses --      1.0984                 1.1031                 1.0902
 Frc consts  --      6.3534                 6.5558                 6.6823
 IR Inten    --      7.0445                 7.5217                 0.8087

                     49                     50                     51
                      A                      A                      A
 Frequencies --   3239.7054              3248.0817              3602.6913
 Red. masses --      1.0929                 1.0927                 1.0752
 Frc consts  --      6.7582                 6.7921                 8.2226
 IR Inten    --      0.6029                 2.8343                45.7653

 - Thermochemistry -
 -------------------
 Temperature   298.150 Kelvin.  Pressure   1.00000 Atm.
 Atom     1 has atomic number  6 and mass  12.00000

 Molecular mass:   230.96950 amu.
 Principal axes and moments of inertia in atomic units:
                           1         2         3
     Eigenvalues --   973.762696651.921397518.12221
           X            0.99979   0.02031  -0.00407
           Y           -0.02034   0.99976  -0.00852
           Z            0.00390   0.00860   0.99996
 This molecule is an asymmetric top.
 Rotational symmetry number  1.
 Warning -- assumption of classical behavior for rotation
           may cause significant error
 Rotational temperatures (Kelvin)      0.08895     0.01302     0.01152
 Rotational constants (GHZ):           1.85337     0.27131     0.24005
 Zero-point vibrational energy     361159.2 (Joules/Mol)
                                   86.31912 (Kcal/Mol)
 Warning -- explicit consideration of  17 degrees of freedom as
           vibrations may cause significant error
 Vibrational temperatures:     54.77    78.76   138.91   224.07   302.78
          (Kelvin)            315.13   330.71   363.82   418.82   512.54
                              589.63   658.00   711.75   767.97   794.85
                              843.24   852.72   964.47   982.53  1013.41
                             1150.91  1194.22  1265.49  1269.76  1344.10
                             1376.09  1481.18  1521.28  1576.52  1652.81
                             1753.14  1825.11  1896.22  1922.22  1963.79
                             2031.70  2096.76  2128.42  2140.26  2160.25
                             2231.39  2352.98  2391.61  2588.78  4404.95
                             4508.11  4569.52  4640.55  4661.21  4673.27
                             5183.47

 Zero-point correction=                           0.137558 (Hartree/Particle)
 Thermal correction to Energy=                    0.148732
 Thermal correction to Enthalpy=                  0.149676
 Thermal correction to Gibbs Free Energy=         0.098542
 Sum of electronic and zero-point Energies=          -3110.508992
 Sum of electronic and thermal Energies=             -3110.497819
 Sum of electronic and thermal Enthalpies=           -3110.496875
 Sum of electronic and thermal Free Energies=        -3110.548008

                     E (Thermal)             CV                S
                      KCal/Mol        Cal/Mol-Kelvin    Cal/Mol-Kelvin
 Total                   93.331             40.978            107.620
 Electronic               0.000              0.000              0.000
 Translational            0.889              2.981             42.213
 Rotational               0.889              2.981             32.254
 Vibrational             91.553             35.016             33.152
 Vibration     1          0.594              1.982              5.357
 Vibration     2          0.596              1.976              4.638
 Vibration     3          0.603              1.952              3.523
 Vibration     4          0.620              1.896              2.601
 Vibration     5          0.643              1.825              2.040
 Vibration     6          0.647              1.812              1.967
 Vibration     7          0.652              1.795              1.880
 Vibration     8          0.664              1.758              1.711
 Vibration     9          0.687              1.690              1.468
 Vibration    10          0.732              1.562              1.139
 Vibration    11          0.774              1.449              0.927
 Vibration    12          0.815              1.345              0.774
 Vibration    13          0.850              1.262              0.672
 Vibration    14          0.889              1.175              0.579
 Vibration    15          0.908              1.134              0.539
 Vibration    16          0.943              1.061              0.474
 Vibration    17          0.950              1.047              0.462

 Optimization completed.
    -- Stationary point found.
 Normal termination of Gaussian 16 at Tue Sep 17 09:55:33 2024.

 ----------------------------------------------------------------------
 #p M062X/def2tzvp geom=check guess=read scf(xqc,tight) integral(grid=u
 ltrafine) scrf(SMD, solvent=1,4-Dioxane) polar prop=efg volume
 ----------------------------------------------------------------------

 ---
 spe
 ---
 Structure from the checkpoint file:  "smiles_00081_conf_2.chk"
 Charge =  0 Multiplicity = 1

 SCF Done:  E(RM062X) =  -3113.09861894     A.U. after   12 cycles

  Exact polarizability:     221.154      -0.809     133.146       2.689       3.302      81.805
 Approx polarizability:     215.108      -5.953     156.760       4.591       6.240     101.347

 Normal termination of Gaussian 16 at Tue Sep 17 10:34:57 2024.
 Gaussian 16:  ES64L-G16RevC.02  7-Dec-2021

 ----------------------------------------------------------------------
 #p M062X/def2tzvp geom=check guess=read scf(xqc,tight) integral(grid=u
 ltrafine) scrf(SMD, solvent=1,4-Dioxane) nmr=giao
 ----------------------------------------------------------------------

 ---
 spe
 ---
 Structure from the checkpoint file:  "smiles_00081_conf_2.chk"
 Charge =  0 Multiplicity = 1

                         Standard orientation:
 ---------------------------------------------------------------------
 Center     Atomic      Atomic             Coordinates (Angstroms)
 Number     Number       Type             X           Y           Z
 ---------------------------------------------------------------------
      1          6           0       -3.536603   -1.739452    0.587638
      2          6           0       -3.768071   -0.348305    0.037812
      3          8           0       -4.885461    0.125440   -0.087087
      4          7           0       -2.668259    0.417947   -0.326548
      5          6           0       -1.292128    0.179233   -0.234954
      6          6           0       -0.668306   -1.059104   -0.432056
      7          6           0        0.716132   -1.191446   -0.329021
      8          6           0        1.498996   -0.073584   -0.058740
      9         35           0        3.391733   -0.250969    0.071694
     10          6           0        0.918480    1.183010    0.107522
     11          6           0       -0.458147    1.279363    0.018846
     12          9           0       -1.045969    2.487797    0.169701
     13          1           0       -4.434957   -2.023234    1.135095
     14          1           0       -3.396215   -2.454662   -0.229405
     15          1           0       -2.663947   -1.793324    1.242422
     16          1           0       -2.931775    1.374666   -0.528880
     17          1           0       -1.261614   -1.926374   -0.687275
     18          1           0        1.181601   -2.157919   -0.477781
     19          1           0        1.509374    2.067132    0.309478
 ---------------------------------------------------------------------

 SCF Done:  E(RM062X) =  -3113.09861894     A.U. after    1 cycles

      1  C    Isotropic =   161.4126   Anisotropy =    34.8645

      2  C    Isotropic =    -4.4561   Anisotropy =   142.7730

      3  O    Isotropic =  -178.4022   Anisotropy =   692.2323

      4  N    Isotropic =   103.7855   Anisotropy =   128.1803

      5  C    Isotropic =    37.8825   Anisotropy =   162.9520

      6  C    Isotropic =    43.2445   Anisotropy =   190.9273

      7  C    Isotropic =    35.9050   Anisotropy =   179.4202

      8  C    Isotropic =    32.3535   Anisotropy =   138.6142

      9  Br   Isotropic =  2074.8137   Anisotropy =  1306.5660

     10  C    Isotropic =    46.0733   Anisotropy =   153.1634

     11  C    Isotropic =    12.0402   Anisotropy =   110.7076

     12  F    Isotropic =   306.9440   Anisotropy =   141.3964

     13  H    Isotropic =    29.7620   Anisotropy =     7.8805

     14  H    Isotropic =    29.5555   Anisotropy =     6.3801

     15  H    Isotropic =    29.5429   Anisotropy =     4.4382

     16  H    Isotropic =    24.5274   Anisotropy =     7.1088

     17  H    Isotropic =    23.9070   Anisotropy =     8.9755

     18  H    Isotropic =    23.8649   Anisotropy =    10.1206

     19  H    Isotropic =    23.9076   Anisotropy =     9.8174

 The electronic state is 1-A.
 Alpha  occ. eigenvalues -- -485.38383 -63.36858 -57.18806 -57.18565 -57.18560
 Alpha  occ. eigenvalues --  -25.27837 -19.60599 -14.79346 -10.66208 -10.64934
 Alpha  occ. eigenvalues --  -10.61613 -10.61569 -10.57278 -10.57077 -10.56821
 Alpha  occ. eigenvalues --  -10.54623  -9.03503  -6.85922  -6.85027  -6.85009
 Alpha  occ. eigenvalues --   -2.89298  -2.88974  -2.88952  -2.88118  -2.88118
 Alpha  occ. eigenvalues --   -1.39178  -1.17442  -1.06266  -0.98953  -0.90742
 Alpha  occ. eigenvalues --   -0.87413  -0.84894  -0.82752  -0.73946  -0.72369
 Alpha  occ. eigenvalues --   -0.67000  -0.64856  -0.61886  -0.59462  -0.58978
 Alpha  occ. eigenvalues --   -0.55881  -0.54283  -0.53616  -0.52709  -0.51079
 Alpha  occ. eigenvalues --   -0.49199  -0.47898  -0.47095  -0.45791  -0.44680
 Alpha  occ. eigenvalues --   -0.43008  -0.40785  -0.36035  -0.35743  -0.34786
 Alpha  occ. eigenvalues --   -0.33009  -0.28455
 Alpha virt. eigenvalues --   -0.00833   0.00324   0.02648   0.05585   0.06998
 Alpha virt. eigenvalues --    0.08876   0.10504   0.11688   0.12212   0.13925
 Alpha virt. eigenvalues --    0.14789   0.15198   0.16115   0.17024   0.17911

 Mulliken charges:
               1
     1  C   -0.546272
     2  C    0.357361
     3  O   -0.383866
     4  N   -0.356413
     5  C    0.141145
     6  C   -0.217342
     7  C   -0.169102
     8  C    0.039523
     9  Br  -0.098984
    10  C   -0.216908
    11  C    0.261382
    12  F   -0.211894
    13  H    0.177286
    14  H    0.183106
    15  H    0.194375
    16  H    0.266986
    17  H    0.201058
    18  H    0.185439
    19  H    0.193120
 Sum of Mulliken charges =  -0.00000

 Dipole moment (field-independent basis, Debye):
    X=              2.0420    Y=             -2.1734    Z=              0.0500  Tot=              2.9826
 Quadrupole moment (field-independent basis, Debye-Ang):
   XX=           -107.3825   YY=            -74.8776   ZZ=            -82.7700
   XY=              7.6576   XZ=             -1.1708   YZ=              0.0189

 Normal termination of Gaussian 16 at Tue Sep 17 10:49:03 2024.
