 Gaussian 16, Revision C.02,

 ----------------------------------------------------------------------
 #p B3LYP/6-31G(d,p) EmpiricalDispersion=GD3BJ opt freq scf(xqc,tight)
 integral(grid=ultrafine)
 ----------------------------------------------------------------------

 ----------------------------------
 opt-freq conformers_unique/conf_ac
 ----------------------------------
 Symbolic Z-matrix:
 Charge =  0 Multiplicity = 1

 SCF Done:  E(RB3LYP) =  -3031.23937559     A.U. after   15 cycles
 SCF Done:  E(RB3LYP) =  -3031.24057636     A.U. after   12 cycles
 SCF Done:  E(RB3LYP) =  -3031.24077159     A.U. after   11 cycles
 SCF Done:  E(RB3LYP) =  -3031.24081402     A.U. after   12 cycles
 SCF Done:  E(RB3LYP) =  -3031.24075302     A.U. after   12 cycles
 SCF Done:  E(RB3LYP) =  -3031.24083593     A.U. after   12 cycles
 SCF Done:  E(RB3LYP) =  -3031.24083621     A.U. after    7 cycles
 SCF Done:  E(RB3LYP) =  -3031.21201556     A.U. after   15 cycles
 SCF Done:  E(RB3LYP) =  -3031.24195472     A.U. after   13 cycles
 SCF Done:  E(RB3LYP) =  -3031.22105052     A.U. after   14 cycles
 SCF Done:  E(RB3LYP) =  -3031.24571325     A.U. after   11 cycles
 SCF Done:  E(RB3LYP) =  -3031.24612613     A.U. after   12 cycles
 SCF Done:  E(RB3LYP) =  -3031.24615915     A.U. after   11 cycles
 SCF Done:  E(RB3LYP) =  -3031.24616502     A.U. after    9 cycles
 SCF Done:  E(RB3LYP) =  -3031.24616606     A.U. after    8 cycles
 SCF Done:  E(RB3LYP) =  -3031.24616632     A.U. after    7 cycles
 SCF Done:  E(RB3LYP) =  -3031.24616635     A.U. after    6 cycles
 Optimization completed.
    -- Stationary point found.
 Normal termination of Gaussian 16 at Tue Sep 17 09:48:52 2024.

 ----------------------------------------------------------------------
 #P Geom=AllCheck Guess=TCheck SCRF=Check GenChk RB3LYP/6-31G(d,p) Freq
 ----------------------------------------------------------------------

 Structure from the checkpoint file:  "smiles_00118_conf_2.chk"
 ----------------------------------
 opt-freq conformers_unique/conf_ac
 ----------------------------------
 Charge =  0 Multiplicity = 1

 SCF Done:  E(RB3LYP) =  -3031.24616635     A.U. after    1 cycles

                      1                      2                      3
                      A                      A                      A
 Frequencies --     70.0064               116.9236               137.5151
 Red. masses --      4.3291                 4.6036                13.1466
 Frc consts  --      0.0125                 0.0371                 0.1465
 IR Inten    --      0.0889                 9.8459                 3.3947

                      4                      5                      6
                      A                      A                      A
 Frequencies --    161.1606               171.1492               194.1161
 Red. masses --      4.5194                 5.2951                 2.4003
 Frc consts  --      0.0692                 0.0914                 0.0533
 IR Inten    --      0.3533                 0.0181                 2.1353

                      7                      8                      9
                      A                      A                      A
 Frequencies --    258.3079               287.0572               323.6666
 Red. masses --      1.1895                 5.3830                 6.9411
 Frc consts  --      0.0468                 0.2613                 0.4284
 IR Inten    --      0.2671                 6.0737                 1.4033

                     10                     11                     12
                      A                      A                      A
 Frequencies --    369.7316               424.0845               464.1402
 Red. masses --      4.0109                 5.8766                 3.2816
 Frc consts  --      0.3230                 0.6227                 0.4165
 IR Inten    --      2.2339                10.9469                 2.1118

                     13                     14                     15
                      A                      A                      A
 Frequencies --    522.4957               576.8136               647.5271
 Red. masses --      5.4611                 3.5535                 5.6095
 Frc consts  --      0.8784                 0.6966                 1.3858
 IR Inten    --      1.0959                 1.8745                39.6865

                     16                     17                     18
                      A                      A                      A
 Frequencies --    680.0610               749.4975               780.9046
 Red. masses --      7.1268                 3.3043                 5.0282
 Frc consts  --      1.9420                 1.0936                 1.8066
 IR Inten    --     29.0378                 0.1427                 3.8518

                     19                     20                     21
                      A                      A                      A
 Frequencies --    831.4018               917.1791               943.7874
 Red. masses --      1.5848                 6.0708                 1.3366
 Frc consts  --      0.6454                 3.0089                 0.7015
 IR Inten    --     36.0416                26.0284                 3.4023

                     22                     23                     24
                      A                      A                      A
 Frequencies --    960.2840              1031.4085              1049.6295
 Red. masses --      1.3502                 1.7869                 3.7509
 Frc consts  --      0.7336                 1.1200                 2.4348
 IR Inten    --      4.5732                 0.2922                14.4390

                     25                     26                     27
                      A                      A                      A
 Frequencies --   1083.1884              1176.8495              1177.6825
 Red. masses --      3.7287                 1.3148                 1.2724
 Frc consts  --      2.5776                 1.0729                 1.0398
 IR Inten    --     80.9540                24.0697                 0.7727

                     28                     29                     30
                      A                      A                      A
 Frequencies --   1213.6785              1218.0468              1291.2643
 Red. masses --      1.3476                 2.3990                 1.5554
 Frc consts  --      1.1696                 2.0971                 1.5280
 IR Inten    --      2.4605               154.2512                23.3827

                     31                     32                     33
                      A                      A                      A
 Frequencies --   1321.6558              1368.8411              1428.2584
 Red. masses --      3.8785                 5.7040                 1.8710
 Frc consts  --      3.9916                 6.2971                 2.2487
 IR Inten    --    314.0593                29.6265                31.6014

                     34                     35                     36
                      A                      A                      A
 Frequencies --   1456.9275              1486.5259              1506.8617
 Red. masses --      2.0807                 1.2766                 1.0459
 Frc consts  --      2.6021                 1.6620                 1.3993
 IR Inten    --      8.7003                26.6451                 7.0011

                     37                     38                     39
                      A                      A                      A
 Frequencies --   1516.0908              1542.3326              1612.2141
 Red. masses --      1.0712                 2.8362                 6.3187
 Frc consts  --      1.4506                 3.9751                 9.6765
 IR Inten    --     44.6012                59.1341                63.6738

                     40                     41                     42
                      A                      A                      A
 Frequencies --   1651.9172              1795.3192              2896.7142
 Red. masses --      6.1991                 9.8401                 1.0836
 Frc consts  --      9.9668                18.6867                 5.3570
 IR Inten    --    161.2150               255.9219               147.7241

                     43                     44                     45
                      A                      A                      A
 Frequencies --   3029.0361              3097.0865              3166.6236
 Red. masses --      1.0342                 1.1068                 1.1010
 Frc consts  --      5.5906                 6.2550                 6.5048
 IR Inten    --     50.6809                31.6557                15.2250

                     46                     47                     48
                      A                      A                      A
 Frequencies --   3185.0327              3227.3058              3231.9067
 Red. masses --      1.0897                 1.0915                 1.0915
 Frc consts  --      6.5131                 6.6979                 6.7172
 IR Inten    --      6.6252                 1.5442                 8.1555

 - Thermochemistry -
 -------------------
 Temperature   298.150 Kelvin.  Pressure   1.00000 Atm.
 Atom     1 has atomic number  6 and mass  12.00000

 Molecular mass:   213.96294 amu.
 Principal axes and moments of inertia in atomic units:
                           1         2         3
     Eigenvalues --  1770.954563132.625714892.04768
           X            0.99597  -0.08971   0.00000
           Y            0.08971   0.99597  -0.00000
           Z           -0.00000   0.00000   1.00000
 This molecule is an asymmetric top.
 Rotational symmetry number  1.
 Warning -- assumption of classical behavior for rotation
           may cause significant error
 Rotational temperatures (Kelvin)      0.04891     0.02765     0.01771
 Rotational constants (GHZ):           1.01908     0.57611     0.36891
 Zero-point vibrational energy     349011.8 (Joules/Mol)
                                   83.41581 (Kcal/Mol)
 Warning -- explicit consideration of  14 degrees of freedom as
           vibrations may cause significant error
 Vibrational temperatures:    100.72   168.23   197.85   231.87   246.25
          (Kelvin)            279.29   371.65   413.01   465.68   531.96
                              610.16   667.79   751.75   829.91   931.65
                              978.46  1078.36  1123.55  1196.20  1319.62
                             1357.90  1381.63  1483.97  1510.18  1558.47
                             1693.22  1694.42  1746.21  1752.50  1857.84
                             1901.57  1969.46  2054.95  2096.19  2138.78
                             2168.04  2181.32  2219.07  2319.62  2376.74
                             2583.06  4167.73  4358.11  4456.02  4556.07
                             4582.55  4643.37  4649.99

 Zero-point correction=                           0.132932 (Hartree/Particle)
 Thermal correction to Energy=                    0.143160
 Thermal correction to Enthalpy=                  0.144105
 Thermal correction to Gibbs Free Energy=         0.095882
 Sum of electronic and zero-point Energies=          -3031.113235
 Sum of electronic and thermal Energies=             -3031.103006
 Sum of electronic and thermal Enthalpies=           -3031.102062
 Sum of electronic and thermal Free Energies=        -3031.150285

                     E (Thermal)             CV                S
                      KCal/Mol        Cal/Mol-Kelvin    Cal/Mol-Kelvin
 Total                   89.835             36.993            101.494
 Electronic               0.000              0.000              0.000
 Translational            0.889              2.981             41.985
 Rotational               0.889              2.981             31.673
 Vibrational             88.057             31.031             27.835
 Vibration     1          0.598              1.968              4.153
 Vibration     2          0.608              1.935              3.151
 Vibration     3          0.614              1.916              2.838
 Vibration     4          0.622              1.890              2.536
 Vibration     5          0.626              1.878              2.423
 Vibration     6          0.635              1.848              2.188
 Vibration     7          0.667              1.749              1.673
 Vibration     8          0.684              1.698              1.491
 Vibration     9          0.708              1.628              1.292
 Vibration    10          0.742              1.534              1.081
 Vibration    11          0.786              1.418              0.878
 Vibration    12          0.822              1.330              0.754
 Vibration    13          0.877              1.200              0.604
 Vibration    14          0.933              1.081              0.491

 Optimization completed.
    -- Stationary point found.
 Normal termination of Gaussian 16 at Tue Sep 17 09:50:11 2024.

 ----------------------------------------------------------------------
 #p M062X/def2tzvp geom=check guess=read scf(xqc,tight) integral(grid=u
 ltrafine) scrf(SMD, solvent=1,4-Dioxane) polar prop=efg volume
 ----------------------------------------------------------------------

 ---
 spe
 ---
 Structure from the checkpoint file:  "smiles_00118_conf_2.chk"
 Charge =  0 Multiplicity = 1

 SCF Done:  E(RM062X) =  -3033.68567063     A.U. after   13 cycles

  Exact polarizability:     190.413      -4.289     157.909       0.000       0.001      76.362
 Approx polarizability:     195.565      -3.064     175.677       0.000       0.001      95.168

 Normal termination of Gaussian 16 at Tue Sep 17 10:35:40 2024.
 Gaussian 16:  ES64L-G16RevC.02  7-Dec-2021

 ----------------------------------------------------------------------
 #p M062X/def2tzvp geom=check guess=read scf(xqc,tight) integral(grid=u
 ltrafine) scrf(SMD, solvent=1,4-Dioxane) nmr=giao
 ----------------------------------------------------------------------

 ---
 spe
 ---
 Structure from the checkpoint file:  "smiles_00118_conf_2.chk"
 Charge =  0 Multiplicity = 1

                         Standard orientation:
 ---------------------------------------------------------------------
 Center     Atomic      Atomic             Coordinates (Angstroms)
 Number     Number       Type             X           Y           Z
 ---------------------------------------------------------------------
      1          6           0       -2.361459    2.660250   -0.000066
      2          8           0       -1.911336    1.310620    0.000034
      3          6           0       -0.583678    1.072779    0.000007
      4          6           0        0.399806    2.071854    0.000028
      5          6           0        1.747170    1.723526    0.000037
      6          6           0        2.138285    0.383043    0.000012
      7          6           0        3.566409    0.020338    0.000002
      8          8           0        3.992056   -1.119688   -0.000059
      9          6           0        1.157271   -0.622367    0.000005
     10          6           0       -0.180212   -0.281905    0.000010
     11         35           0       -1.508655   -1.643895    0.000004
     12          1           0       -2.020989    3.193656    0.894920
     13          1           0       -3.449727    2.607165   -0.000036
     14          1           0       -2.021049    3.193524   -0.895158
     15          1           0        0.114151    3.115892    0.000045
     16          1           0        2.503719    2.503579    0.000058
     17          1           0        4.260598    0.890215    0.000048
     18          1           0        1.468905   -1.660279   -0.000011
 ---------------------------------------------------------------------

 SCF Done:  E(RM062X) =  -3033.68567063     A.U. after    1 cycles

      1  C    Isotropic =   128.2996   Anisotropy =    76.3466

      2  O    Isotropic =   201.0790   Anisotropy =   131.1876

      3  C    Isotropic =     1.1841   Anisotropy =   169.4889

      4  C    Isotropic =    57.2066   Anisotropy =   182.1454

      5  C    Isotropic =    27.0307   Anisotropy =   219.9367

      6  C    Isotropic =    33.7766   Anisotropy =   192.9355

      7  C    Isotropic =   -31.0368   Anisotropy =   176.7725

      8  O    Isotropic =  -400.4449   Anisotropy =  1182.8451

      9  C    Isotropic =    30.3512   Anisotropy =   197.4297

     10  C    Isotropic =    36.8641   Anisotropy =   117.4698

     11  Br   Isotropic =  2175.3433   Anisotropy =  1034.1325

     12  H    Isotropic =    28.0665   Anisotropy =     8.8204

     13  H    Isotropic =    27.5592   Anisotropy =     8.5313

     14  H    Isotropic =    28.0667   Anisotropy =     8.8205

     15  H    Isotropic =    24.1739   Anisotropy =     8.7317

     16  H    Isotropic =    23.2919   Anisotropy =     5.4238

     17  H    Isotropic =    21.1694   Anisotropy =     4.2432

     18  H    Isotropic =    22.7775   Anisotropy =    11.3892

 The electronic state is 1-A.
 Alpha  occ. eigenvalues -- -485.37740 -63.36206 -57.18159 -57.17916 -57.17902
 Alpha  occ. eigenvalues --  -19.67814 -19.62636 -10.63633 -10.63156 -10.60892
 Alpha  occ. eigenvalues --  -10.59838 -10.56962 -10.56770 -10.56222 -10.55948
 Alpha  occ. eigenvalues --   -9.02846  -6.85280  -6.84376  -6.84329  -2.88657
 Alpha  occ. eigenvalues --   -2.88337  -2.88288  -2.87446  -2.87445  -1.21437
 Alpha  occ. eigenvalues --   -1.16854  -0.98911  -0.91311  -0.87627  -0.83490
 Alpha  occ. eigenvalues --   -0.81312  -0.73103  -0.70764  -0.65774  -0.62458
 Alpha  occ. eigenvalues --   -0.59303  -0.56587  -0.56105  -0.53143  -0.52820
 Alpha  occ. eigenvalues --   -0.50065  -0.49110  -0.49008  -0.46814  -0.46243
 Alpha  occ. eigenvalues --   -0.44230  -0.40758  -0.40738  -0.38484  -0.35216
 Alpha  occ. eigenvalues --   -0.33631  -0.31700  -0.29254
 Alpha virt. eigenvalues --   -0.03298  -0.00083   0.03627   0.07261   0.07329
 Alpha virt. eigenvalues --    0.09099   0.10713   0.12309   0.13022   0.13569
 Alpha virt. eigenvalues --    0.14725   0.15560   0.16062   0.17105   0.17797

 Mulliken charges:
               1
     1  C   -0.318397
     2  O   -0.264855
     3  C    0.330467
     4  C   -0.254927
     5  C   -0.198207
     6  C    0.068175
     7  C    0.096240
     8  O   -0.322828
     9  C   -0.186907
    10  C   -0.031050
    11  Br  -0.085157
    12  H    0.166569
    13  H    0.171699
    14  H    0.166578
    15  H    0.187814
    16  H    0.173558
    17  H    0.107555
    18  H    0.193673
 Sum of Mulliken charges =  -0.00000

 Dipole moment (field-independent basis, Debye):
    X=             -2.0889    Y=              6.0598    Z=              0.0000  Tot=              6.4097
 Quadrupole moment (field-independent basis, Debye-Ang):
   XX=            -82.5575   YY=            -65.5649   ZZ=            -78.4586
   XY=              4.7181   XZ=              0.0010   YZ=             -0.0003

 Normal termination of Gaussian 16 at Tue Sep 17 10:50:45 2024.
