 Gaussian 16, Revision C.02,

 ----------------------------------------------------------------------
 #p B3LYP/6-31G(d,p) EmpiricalDispersion=GD3BJ opt freq scf(xqc,tight)
 integral(grid=ultrafine)
 ----------------------------------------------------------------------

 ----------------------------------
 opt-freq conformers_unique/conf_ae
 ----------------------------------
 Symbolic Z-matrix:
 Charge =  0 Multiplicity = 1

 SCF Done:  E(RB3LYP) =  -2996.56199571     A.U. after   15 cycles
 SCF Done:  E(RB3LYP) =  -2996.56424186     A.U. after   12 cycles
 SCF Done:  E(RB3LYP) =  -2996.56488649     A.U. after   12 cycles
 SCF Done:  E(RB3LYP) =  -2996.56510830     A.U. after   11 cycles
 SCF Done:  E(RB3LYP) =  -2996.56514311     A.U. after   11 cycles
 SCF Done:  E(RB3LYP) =  -2996.56528537     A.U. after   10 cycles
 SCF Done:  E(RB3LYP) =  -2996.56530411     A.U. after   10 cycles
 SCF Done:  E(RB3LYP) =  -2996.56530806     A.U. after    9 cycles
 SCF Done:  E(RB3LYP) =  -2996.56531033     A.U. after    9 cycles
 SCF Done:  E(RB3LYP) =  -2996.56531086     A.U. after    8 cycles
 SCF Done:  E(RB3LYP) =  -2996.56531094     A.U. after    7 cycles
 Optimization completed.
    -- Stationary point found.
 Normal termination of Gaussian 16 at Tue Sep 17 09:55:57 2024.

 ----------------------------------------------------------------------
 #P Geom=AllCheck Guess=TCheck SCRF=Check GenChk RB3LYP/6-31G(d,p) Freq
 ----------------------------------------------------------------------

 Structure from the checkpoint file:  "smiles_00017_conf_4.chk"
 ----------------------------------
 opt-freq conformers_unique/conf_ae
 ----------------------------------
 Charge =  0 Multiplicity = 1

 SCF Done:  E(RB3LYP) =  -2996.56531094     A.U. after    1 cycles

                      1                      2                      3
                      A                      A                      A
 Frequencies --     40.8517                93.2092                96.9972
 Red. masses --      2.6735                 4.6321                 4.0709
 Frc consts  --      0.0026                 0.0237                 0.0226
 IR Inten    --      0.1210                 1.6648                 0.6585

                      4                      5                      6
                      A                      A                      A
 Frequencies --    161.8963               177.8639               254.7303
 Red. masses --      4.4196                 5.4741                 1.0927
 Frc consts  --      0.0683                 0.1020                 0.0418
 IR Inten    --      0.4258                 1.0036                 0.0390

                      7                      8                      9
                      A                      A                      A
 Frequencies --    279.7891               290.2489               309.9689
 Red. masses --      1.6521                 1.9989                 4.4561
 Frc consts  --      0.0762                 0.0992                 0.2523
 IR Inten    --      0.2511                 1.3388                 0.8811

                     10                     11                     12
                      A                      A                      A
 Frequencies --    359.7427               389.5747               462.0356
 Red. masses --      3.0476                 2.4896                 3.1367
 Frc consts  --      0.2324                 0.2226                 0.3945
 IR Inten    --      0.9891                 1.1923                 3.7849

                     13                     14                     15
                      A                      A                      A
 Frequencies --    480.9517               511.7830               533.2280
 Red. masses --      3.9328                 3.9043                 5.1848
 Frc consts  --      0.5360                 0.6025                 0.8686
 IR Inten    --      6.3393                 3.5017                 5.0485

                     16                     17                     18
                      A                      A                      A
 Frequencies --    621.1383               668.2985               751.7175
 Red. masses --      3.4185                 6.3948                 3.8040
 Frc consts  --      0.7771                 1.6828                 1.2665
 IR Inten    --      2.1058                12.7361                 7.8093

                     19                     20                     21
                      A                      A                      A
 Frequencies --    762.9064               796.8625               860.1363
 Red. masses --      1.5966                 2.3666                 3.1405
 Frc consts  --      0.5475                 0.8854                 1.3689
 IR Inten    --     16.5334                25.3149                 9.5210

                     22                     23                     24
                      A                      A                      A
 Frequencies --    885.3334               935.2960               943.7942
 Red. masses --      1.5455                 1.3069                 1.3309
 Frc consts  --      0.7137                 0.6736                 0.6985
 IR Inten    --      1.9162                 0.6155                 4.3523

                     25                     26                     27
                      A                      A                      A
 Frequencies --    954.2491               968.4139               992.3125
 Red. masses --      1.7196                 2.0053                 1.2944
 Frc consts  --      0.9226                 1.1080                 0.7510
 IR Inten    --     14.9888                42.3383                 0.5406

                     28                     29                     30
                      A                      A                      A
 Frequencies --   1049.5929              1070.3038              1144.0331
 Red. masses --      7.5424                 1.9453                 1.7143
 Frc consts  --      4.8955                 1.3130                 1.3220
 IR Inten    --     41.0665                 6.0985                 7.0115

                     31                     32                     33
                      A                      A                      A
 Frequencies --   1153.7273              1166.6073              1186.5897
 Red. masses --      1.7937                 1.9637                 1.0901
 Frc consts  --      1.4067                 1.5746                 0.9043
 IR Inten    --     17.3539               105.3456                 1.1002

                     34                     35                     36
                      A                      A                      A
 Frequencies --   1205.8174              1263.0987              1287.6960
 Red. masses --      1.9683                 2.4781                 1.6407
 Frc consts  --      1.6862                 2.3294                 1.6029
 IR Inten    --      7.5910               129.0573                35.0297

                     37                     38                     39
                      A                      A                      A
 Frequencies --   1332.3000              1371.6224              1402.1262
 Red. masses --      7.9053                 1.3336                 1.2718
 Frc consts  --      8.2675                 1.4783                 1.4732
 IR Inten    --      1.6673                 4.0327                 1.2553

                     40                     41                     42
                      A                      A                      A
 Frequencies --   1415.6239              1431.7748              1479.9056
 Red. masses --      1.3378                 1.2492                 2.2111
 Frc consts  --      1.5796                 1.5088                 2.8532
 IR Inten    --     16.7518                21.4606                11.4494

                     43                     44                     45
                      A                      A                      A
 Frequencies --   1499.5721              1504.0971              1513.6239
 Red. masses --      1.0517                 1.0860                 1.0619
 Frc consts  --      1.3934                 1.4476                 1.4334
 IR Inten    --      1.6851                14.0653                12.5389

                     46                     47                     48
                      A                      A                      A
 Frequencies --   1517.0327              1529.7635              1623.8215
 Red. masses --      2.1861                 1.1056                 5.9649
 Frc consts  --      2.9643                 1.5243                 9.2668
 IR Inten    --     67.1781                26.2249                 1.1787

                     49                     50                     51
                      A                      A                      A
 Frequencies --   1642.3879              3049.4615              3057.6762
 Red. masses --      6.1861                 1.0353                 1.0370
 Frc consts  --      9.8315                 5.6725                 5.7124
 IR Inten    --     20.2598                12.1409                12.2919

                     52                     53                     54
                      A                      A                      A
 Frequencies --   3076.4500              3119.5085              3128.1507
 Red. masses --      1.0869                 1.1018                 1.1013
 Frc consts  --      6.0607                 6.3172                 6.3493
 IR Inten    --     17.5590                 3.7667                60.0528

                     55                     56                     57
                      A                      A                      A
 Frequencies --   3136.2172              3155.4715              3191.2212
 Red. masses --      1.1034                 1.1016                 1.0862
 Frc consts  --      6.3943                 6.4628                 6.5175
 IR Inten    --     28.3149                 8.6030                 2.1937

                     58                     59                     60
                      A                      A                      A
 Frequencies --   3205.7960              3220.6064              3226.5832
 Red. masses --      1.0917                 1.0944                 1.0944
 Frc consts  --      6.6105                 6.6878                 6.7128
 IR Inten    --     14.3001                 8.5999                 5.8821

 - Thermochemistry -
 -------------------
 Temperature   298.150 Kelvin.  Pressure   1.00000 Atm.
 Atom     1 has atomic number  6 and mass  12.00000

 Molecular mass:   213.99933 amu.
 Principal axes and moments of inertia in atomic units:
                           1         2         3
     Eigenvalues --  1930.523972455.083213969.39091
           X            0.97130   0.23785  -0.00078
           Y           -0.23784   0.97125  -0.00975
           Z           -0.00156   0.00965   0.99995
 This molecule is an asymmetric top.
 Rotational symmetry number  1.
 Warning -- assumption of classical behavior for rotation
           may cause significant error
 Rotational temperatures (Kelvin)      0.04487     0.03528     0.02182
 Rotational constants (GHZ):           0.93485     0.73510     0.45466
 Zero-point vibrational energy     472175.6 (Joules/Mol)
                                  112.85267 (Kcal/Mol)
 Warning -- explicit consideration of  15 degrees of freedom as
           vibrations may cause significant error
 Vibrational temperatures:     58.78   134.11   139.56   232.93   255.91
          (Kelvin)            366.50   402.55   417.60   445.98   517.59
                              560.51   664.77   691.98   736.34   767.20
                              893.68   961.53  1081.55  1097.65  1146.51
                             1237.54  1273.80  1345.68  1357.91  1372.95
                             1393.33  1427.72  1510.13  1539.93  1646.01
                             1659.96  1678.49  1707.24  1734.90  1817.32
                             1852.71  1916.88  1973.46  2017.35  2036.77
                             2060.00  2129.25  2157.55  2164.06  2177.77
                             2182.67  2200.99  2336.32  2363.03  4387.49
                             4399.31  4426.33  4488.28  4500.71  4512.32
                             4540.02  4591.46  4612.43  4633.73  4642.33

 Zero-point correction=                           0.179842 (Hartree/Particle)
 Thermal correction to Energy=                    0.190706
 Thermal correction to Enthalpy=                  0.191650
 Thermal correction to Gibbs Free Energy=         0.142089
 Sum of electronic and zero-point Energies=          -2996.385469
 Sum of electronic and thermal Energies=             -2996.374605
 Sum of electronic and thermal Enthalpies=           -2996.373661
 Sum of electronic and thermal Free Energies=        -2996.423222

                     E (Thermal)             CV                S
                      KCal/Mol        Cal/Mol-Kelvin    Cal/Mol-Kelvin
 Total                  119.670             40.839            104.309
 Electronic               0.000              0.000              0.000
 Translational            0.889              2.981             41.986
 Rotational               0.889              2.981             31.309
 Vibrational            117.892             34.877             31.014
 Vibration     1          0.594              1.981              5.217
 Vibration     2          0.602              1.954              3.592
 Vibration     3          0.603              1.951              3.514
 Vibration     4          0.622              1.889              2.528
 Vibration     5          0.628              1.870              2.351
 Vibration     6          0.665              1.755              1.698
 Vibration     7          0.680              1.711              1.535
 Vibration     8          0.686              1.692              1.473
 Vibration     9          0.699              1.655              1.362
 Vibration    10          0.734              1.555              1.123
 Vibration    11          0.758              1.492              1.002
 Vibration    12          0.820              1.334              0.760
 Vibration    13          0.837              1.292              0.708
 Vibration    14          0.867              1.224              0.629
 Vibration    15          0.888              1.177              0.580

 Optimization completed.
    -- Stationary point found.
 Normal termination of Gaussian 16 at Tue Sep 17 09:58:07 2024.

 ----------------------------------------------------------------------
 #p M062X/def2tzvp geom=check guess=read scf(xqc,tight) integral(grid=u
 ltrafine) scrf(SMD, solvent=1,4-Dioxane) polar prop=efg volume
 ----------------------------------------------------------------------

 ---
 spe
 ---
 Structure from the checkpoint file:  "smiles_00017_conf_4.chk"
 Charge =  0 Multiplicity = 1

 SCF Done:  E(RM062X) =  -2998.97110368     A.U. after   11 cycles

  Exact polarizability:     161.985      -2.774     175.376      10.016       4.606     100.458
 Approx polarizability:     170.976      -7.241     188.721      12.563       9.050     121.350

 Normal termination of Gaussian 16 at Tue Sep 17 10:43:20 2024.
 Gaussian 16:  ES64L-G16RevC.02  7-Dec-2021

 ----------------------------------------------------------------------
 #p M062X/def2tzvp geom=check guess=read scf(xqc,tight) integral(grid=u
 ltrafine) scrf(SMD, solvent=1,4-Dioxane) nmr=giao
 ----------------------------------------------------------------------

 ---
 spe
 ---
 Structure from the checkpoint file:  "smiles_00017_conf_4.chk"
 Charge =  0 Multiplicity = 1

                         Standard orientation:
 ---------------------------------------------------------------------
 Center     Atomic      Atomic             Coordinates (Angstroms)
 Number     Number       Type             X           Y           Z
 ---------------------------------------------------------------------
      1          6           0       -3.463225   -0.513263   -0.116576
      2          6           0       -2.102416   -1.202081   -0.061082
      3          6           0       -1.592270   -1.374665    1.365370
      4          8           0       -1.138083   -0.532006   -0.922402
      5          6           0       -0.487143    0.570604   -0.447444
      6          6           0       -1.099260    1.829530   -0.419422
      7          6           0       -0.400964    2.953511    0.017652
      8          6           0        0.928847    2.838954    0.422282
      9          6           0        1.562023    1.597603    0.380618
     10          6           0        0.855594    0.477823   -0.050652
     11         35           0        1.739038   -1.210454   -0.118120
     12          1           0       -3.445023    0.445802    0.409367
     13          1           0       -4.219538   -1.142150    0.364233
     14          1           0       -3.764254   -0.341724   -1.153437
     15          1           0       -2.183423   -2.185097   -0.535005
     16          1           0       -0.613749   -1.857620    1.373665
     17          1           0       -2.295990   -1.991529    1.932218
     18          1           0       -1.506850   -0.408522    1.872090
     19          1           0       -2.122274    1.913158   -0.766171
     20          1           0       -0.894758    3.919904    0.031971
     21          1           0        1.478962    3.711056    0.760116
     22          1           0        2.598127    1.490576    0.679880
 ---------------------------------------------------------------------

 SCF Done:  E(RM062X) =  -2998.97110368     A.U. after    1 cycles

      1  C    Isotropic =   161.2390   Anisotropy =    36.3044

      2  C    Isotropic =   104.1111   Anisotropy =    82.2700

      3  C    Isotropic =   165.7342   Anisotropy =    31.3040

      4  O    Isotropic =   196.4571   Anisotropy =   118.3645

      5  C    Isotropic =     8.2681   Anisotropy =   161.4390

      6  C    Isotropic =    37.0967   Anisotropy =   186.0152

      7  C    Isotropic =    34.9791   Anisotropy =   211.6522

      8  C    Isotropic =    39.9915   Anisotropy =   207.4614

      9  C    Isotropic =    29.1951   Anisotropy =   182.9589

     10  C    Isotropic =    29.0629   Anisotropy =   121.0543

     11  Br   Isotropic =  2154.5047   Anisotropy =  1044.7354

     12  H    Isotropic =    30.3661   Anisotropy =     5.5567

     13  H    Isotropic =    30.8164   Anisotropy =    10.1946

     14  H    Isotropic =    30.1683   Anisotropy =     8.7399

     15  H    Isotropic =    27.1503   Anisotropy =     5.5564

     16  H    Isotropic =    29.9693   Anisotropy =     8.9355

     17  H    Isotropic =    31.0666   Anisotropy =    10.5801

     18  H    Isotropic =    31.2737   Anisotropy =     2.9263

     19  H    Isotropic =    23.8836   Anisotropy =     9.5163

     20  H    Isotropic =    23.7554   Anisotropy =     5.7425

     21  H    Isotropic =    23.9952   Anisotropy =     5.1991

     22  H    Isotropic =    23.5381   Anisotropy =    10.7544

 The electronic state is 1-A.
 Alpha  occ. eigenvalues -- -485.37225 -63.35694 -57.17642 -57.17406 -57.17394
 Alpha  occ. eigenvalues --  -19.64052 -10.61027 -10.59889 -10.59600 -10.55572
 Alpha  occ. eigenvalues --  -10.55101 -10.54917 -10.54888 -10.52482 -10.52311
 Alpha  occ. eigenvalues --   -9.02331  -6.84745  -6.83871  -6.83828  -2.88123
 Alpha  occ. eigenvalues --   -2.87812  -2.87767  -2.86951  -2.86950  -1.17555
 Alpha  occ. eigenvalues --   -0.97392  -0.89829  -0.88655  -0.84154  -0.81198
 Alpha  occ. eigenvalues --   -0.78237  -0.71612  -0.69309  -0.65480  -0.58497
 Alpha  occ. eigenvalues --   -0.56715  -0.55646  -0.54597  -0.51481  -0.50004
 Alpha  occ. eigenvalues --   -0.48616  -0.47735  -0.46236  -0.44847  -0.43803
 Alpha  occ. eigenvalues --   -0.43064  -0.42746  -0.40847  -0.38948  -0.37557
 Alpha  occ. eigenvalues --   -0.35443  -0.33989  -0.30830  -0.29134
 Alpha virt. eigenvalues --    0.00888   0.01641   0.03995   0.07415   0.09627
 Alpha virt. eigenvalues --    0.10436   0.10865   0.12664   0.13002   0.13785
 Alpha virt. eigenvalues --    0.14203   0.15292   0.15730   0.16789   0.17138

 Mulliken charges:
               1
     1  C   -0.473181
     2  C    0.054523
     3  C   -0.483851
     4  O   -0.316832
     5  C    0.146519
     6  C   -0.157436
     7  C   -0.173068
     8  C   -0.160787
     9  C   -0.165567
    10  C    0.018853
    11  Br  -0.106217
    12  H    0.149615
    13  H    0.157700
    14  H    0.167021
    15  H    0.139602
    16  H    0.165834
    17  H    0.159462
    18  H    0.170019
    19  H    0.199999
    20  H    0.165605
    21  H    0.165247
    22  H    0.176941
 Sum of Mulliken charges =  -0.00000

 Dipole moment (field-independent basis, Debye):
    X=             -1.9715    Y=              1.4351    Z=              1.4572  Tot=              2.8407
 Quadrupole moment (field-independent basis, Debye-Ang):
   XX=            -72.0650   YY=            -70.7089   ZZ=            -82.8241
   XY=              3.1087   XZ=              0.7861   YZ=             -0.0965

 Normal termination of Gaussian 16 at Tue Sep 17 11:00:23 2024.
