 Gaussian 16, Revision C.02,

 ----------------------------------------------------------------------
 #p B3LYP/6-31G(d,p) EmpiricalDispersion=GD3BJ opt freq scf(xqc,tight)
 integral(grid=ultrafine)
 ----------------------------------------------------------------------

 ----------------------------------
 opt-freq conformers_unique/conf_ae
 ----------------------------------
 Symbolic Z-matrix:
 Charge =  0 Multiplicity = 1

 SCF Done:  E(RB3LYP) =  -3630.84484117     A.U. after   15 cycles
 SCF Done:  E(RB3LYP) =  -3630.84720846     A.U. after   12 cycles
 SCF Done:  E(RB3LYP) =  -3630.84728784     A.U. after   12 cycles
 SCF Done:  E(RB3LYP) =  -3630.84726866     A.U. after   12 cycles
 SCF Done:  E(RB3LYP) =  -3630.84734359     A.U. after   11 cycles
 SCF Done:  E(RB3LYP) =  -3630.84735614     A.U. after   11 cycles
 SCF Done:  E(RB3LYP) =  -3630.84737761     A.U. after   13 cycles
 SCF Done:  E(RB3LYP) =  -3630.84738699     A.U. after   10 cycles
 SCF Done:  E(RB3LYP) =  -3630.84739181     A.U. after   12 cycles
 SCF Done:  E(RB3LYP) =  -3630.84739890     A.U. after   12 cycles
 SCF Done:  E(RB3LYP) =  -3630.84739741     A.U. after   12 cycles
 SCF Done:  E(RB3LYP) =  -3630.84740080     A.U. after   11 cycles
 SCF Done:  E(RB3LYP) =  -3630.84740090     A.U. after    9 cycles
 Optimization completed.
    -- Stationary point found.
 Normal termination of Gaussian 16 at Tue Sep 17 09:46:34 2024.

 ----------------------------------------------------------------------
 #P Geom=AllCheck Guess=TCheck SCRF=Check GenChk RB3LYP/6-31G(d,p) Freq
 ----------------------------------------------------------------------

 Structure from the checkpoint file:  "smiles_00068_conf_4.chk"
 ----------------------------------
 opt-freq conformers_unique/conf_ae
 ----------------------------------
 Charge =  0 Multiplicity = 1

 SCF Done:  E(RB3LYP) =  -3630.84740090     A.U. after    1 cycles

                      1                      2                      3
                      A                      A                      A
 Frequencies --     14.8355                40.8878                56.4700
 Red. masses --     17.2410                17.1902                17.4558
 Frc consts  --      0.0022                 0.0169                 0.0328
 IR Inten    --      0.4127                 0.2120                 0.5884

                      4                      5                      6
                      A                      A                      A
 Frequencies --    112.9104               123.1261               155.4978
 Red. masses --     14.9665                10.7704                15.1903
 Frc consts  --      0.1124                 0.0962                 0.2164
 IR Inten    --      3.7921                 3.5587                 0.5475

                      7                      8                      9
                      A                      A                      A
 Frequencies --    186.6031               212.4229               275.5223
 Red. masses --      5.1233                 5.2463                15.2863
 Frc consts  --      0.1051                 0.1395                 0.6837
 IR Inten    --      1.1560                 1.5275                 0.3153

                     10                     11                     12
                      A                      A                      A
 Frequencies --    300.7743               321.0559               361.9733
 Red. masses --      9.7520                15.0933                 9.3944
 Frc consts  --      0.5198                 0.9166                 0.7252
 IR Inten    --      2.9689                 1.8170                 0.2250

                     13                     14                     15
                      A                      A                      A
 Frequencies --    404.9732               444.8168               455.0317
 Red. masses --      6.4371                12.5328                16.1541
 Frc consts  --      0.6220                 1.4610                 1.9707
 IR Inten    --      3.7157                 1.9352                 4.3249

                     16                     17                     18
                      A                      A                      A
 Frequencies --    466.1337               529.4169               532.9645
 Red. masses --      8.5810                 8.8332                17.8476
 Frc consts  --      1.0985                 1.4587                 2.9869
 IR Inten    --      0.2174                 1.3187                 1.5104

                     19                     20                     21
                      A                      A                      A
 Frequencies --    571.4889               585.8221               621.5501
 Red. masses --      8.7827                 7.3508                 7.0436
 Frc consts  --      1.6900                 1.4863                 1.6032
 IR Inten    --      2.5369                 0.2614                 1.4787

                     22                     23                     24
                      A                      A                      A
 Frequencies --    695.0517               756.5514               785.4523
 Red. masses --      2.4295                17.5310                11.0302
 Frc consts  --      0.6915                 5.9120                 4.0093
 IR Inten    --     15.9412                22.0073                40.1005

                     25                     26                     27
                      A                      A                      A
 Frequencies --    885.3433               904.0560               925.1343
 Red. masses --      9.7968                 1.5728                 1.3664
 Frc consts  --      4.5244                 0.7574                 0.6890
 IR Inten    --     17.9633                19.2568                 0.4144

                     28                     29                     30
                      A                      A                      A
 Frequencies --    933.0702              1015.7436              1121.9690
 Red. masses --      1.3833                 6.1561                 8.0798
 Frc consts  --      0.7096                 3.7422                 5.9926
 IR Inten    --      3.0525                 3.3484               397.7839

                     31                     32                     33
                      A                      A                      A
 Frequencies --   1136.0373              1147.6122              1200.1542
 Red. masses --      1.7873                 1.7304                12.4211
 Frc consts  --      1.3591                 1.3427                10.5411
 IR Inten    --     10.0750                54.2234               209.5546

                     34                     35                     36
                      A                      A                      A
 Frequencies --   1231.8944              1234.3425              1291.8432
 Red. masses --     12.3028                 4.2699                 1.4964
 Frc consts  --     11.0002                 3.8330                 1.4713
 IR Inten    --    225.0792                24.9727                 0.4219

                     37                     38                     39
                      A                      A                      A
 Frequencies --   1342.8869              1446.4782              1458.2019
 Red. masses --      3.6536                 3.0531                 3.3591
 Frc consts  --      3.8820                 3.7637                 4.2083
 IR Inten    --      0.3593                22.6444                12.1859

                     40                     41                     42
                      A                      A                      A
 Frequencies --   1601.7434              1632.9292              2358.2454
 Red. masses --      5.8879                 6.0953                12.6794
 Frc consts  --      8.9002                 9.5759                41.5458
 IR Inten    --     62.9865                 9.7828                14.6337

                     43                     44                     45
                      A                      A                      A
 Frequencies --   3234.2672              3236.8470              3242.7559
 Red. masses --      1.0930                 1.0932                 1.0927
 Frc consts  --      6.7364                 6.7480                 6.7700
 IR Inten    --      1.1251                 1.1959                 2.5855

 - Thermochemistry -
 -------------------
 Temperature   298.150 Kelvin.  Pressure   1.00000 Atm.
 Atom     1 has atomic number  7 and mass  14.00307

 Molecular mass:   280.91217 amu.
 Principal axes and moments of inertia in atomic units:
                           1         2         3
     Eigenvalues --  3438.728866377.856839050.53740
           X            0.99901   0.04417  -0.00452
           Y           -0.04418   0.99902  -0.00264
           Z            0.00440   0.00284   0.99999
 This molecule is an asymmetric top.
 Rotational symmetry number  1.
 Warning -- assumption of classical behavior for rotation
           may cause significant error
 Rotational temperatures (Kelvin)      0.02519     0.01358     0.00957
 Rotational constants (GHZ):           0.52483     0.28297     0.19941
 Zero-point vibrational energy     248780.7 (Joules/Mol)
                                   59.46002 (Kcal/Mol)
 Warning -- explicit consideration of  20 degrees of freedom as
           vibrations may cause significant error
 Vibrational temperatures:     21.34    58.83    81.25   162.45   177.15
          (Kelvin)            223.73   268.48   305.63   396.42   432.75
                              461.93   520.80   582.67   639.99   654.69
                              670.66   761.71   766.82   822.25   842.87
                              894.27  1000.02  1088.51  1130.09  1273.81
                             1300.73  1331.06  1342.48  1461.43  1614.26
                             1634.50  1651.16  1726.75  1772.42  1775.94
                             1858.67  1932.11  2081.16  2098.03  2304.55
                             2349.42  3392.99  4653.39  4657.10  4665.60

 Zero-point correction=                           0.094756 (Hartree/Particle)
 Thermal correction to Energy=                    0.107608
 Thermal correction to Enthalpy=                  0.108552
 Thermal correction to Gibbs Free Energy=         0.051712
 Sum of electronic and zero-point Energies=          -3630.752645
 Sum of electronic and thermal Energies=             -3630.739793
 Sum of electronic and thermal Enthalpies=           -3630.738849
 Sum of electronic and thermal Free Energies=        -3630.795689

                     E (Thermal)             CV                S
                      KCal/Mol        Cal/Mol-Kelvin    Cal/Mol-Kelvin
 Total                   67.525             45.357            119.630
 Electronic               0.000              0.000              0.000
 Translational            0.889              2.981             42.797
 Rotational               0.889              2.981             33.650
 Vibrational             65.747             39.396             43.183
 Vibration     1          0.593              1.986              7.227
 Vibration     2          0.594              1.981              5.216
 Vibration     3          0.596              1.975              4.577
 Vibration     4          0.607              1.939              3.218
 Vibration     5          0.610              1.930              3.051
 Vibration     6          0.620              1.897              2.604
 Vibration     7          0.632              1.858              2.261
 Vibration     8          0.643              1.822              2.023
 Vibration     9          0.677              1.719              1.561
 Vibration    10          0.693              1.672              1.413
 Vibration    11          0.707              1.633              1.305
 Vibration    12          0.736              1.551              1.114
 Vibration    13          0.770              1.459              0.945
 Vibration    14          0.804              1.372              0.812
 Vibration    15          0.813              1.350              0.781
 Vibration    16          0.823              1.325              0.748
 Vibration    17          0.884              1.185              0.589
 Vibration    18          0.888              1.177              0.581
 Vibration    19          0.928              1.093              0.501
 Vibration    20          0.943              1.062              0.475

 Optimization completed.
    -- Stationary point found.
 Normal termination of Gaussian 16 at Tue Sep 17 09:48:00 2024.

 ----------------------------------------------------------------------
 #p M062X/def2tzvp geom=check guess=read scf(xqc,tight) integral(grid=u
 ltrafine) scrf(SMD, solvent=1,4-Dioxane) polar prop=efg volume
 ----------------------------------------------------------------------

 ---
 spe
 ---
 Structure from the checkpoint file:  "smiles_00068_conf_4.chk"
 Charge =  0 Multiplicity = 1

 SCF Done:  E(RM062X) =  -3633.33946152     A.U. after   13 cycles

  Exact polarizability:     186.317       3.802     192.937     -16.286      -6.418      97.798
 Approx polarizability:     194.486       3.033     214.900     -17.956      -7.720     122.434

 Normal termination of Gaussian 16 at Tue Sep 17 10:38:44 2024.
 Gaussian 16:  ES64L-G16RevC.02  7-Dec-2021

 ----------------------------------------------------------------------
 #p M062X/def2tzvp geom=check guess=read scf(xqc,tight) integral(grid=u
 ltrafine) scrf(SMD, solvent=1,4-Dioxane) nmr=giao
 ----------------------------------------------------------------------

 ---
 spe
 ---
 Structure from the checkpoint file:  "smiles_00068_conf_4.chk"
 Charge =  0 Multiplicity = 1

                         Standard orientation:
 ---------------------------------------------------------------------
 Center     Atomic      Atomic             Coordinates (Angstroms)
 Number     Number       Type             X           Y           Z
 ---------------------------------------------------------------------
      1          7           0        1.878404    4.476874   -0.463171
      2          6           0        1.517004    3.391797   -0.255014
      3          6           0        1.069673    2.054884    0.003631
      4          6           0        1.966998    0.985650   -0.132008
      5          6           0        1.516527   -0.305454    0.123633
      6         35           0        2.725155   -1.764173   -0.054966
      7          6           0        0.203609   -0.552827    0.517546
      8          6           0       -0.684463    0.522511    0.636983
      9         16           0       -2.371858    0.242378    1.173479
     10          6           0       -3.014513   -0.535840   -0.350578
     11          9           0       -2.397381   -1.697216   -0.635574
     12          9           0       -4.315690   -0.786617   -0.154238
     13          9           0       -2.883452    0.255823   -1.424128
     14          6           0       -0.261981    1.826611    0.381260
     15          1           0        2.992447    1.165018   -0.429091
     16          1           0       -0.126922   -1.562349    0.723309
     17          1           0       -0.953456    2.655338    0.468885
 ---------------------------------------------------------------------

 SCF Done:  E(RM062X) =  -3633.33946152     A.U. after    1 cycles

      1  N    Isotropic =   -86.6843   Anisotropy =   466.0626

      2  C    Isotropic =    51.5462   Anisotropy =   378.4597

      3  C    Isotropic =    48.3700   Anisotropy =   170.6387

      4  C    Isotropic =    22.1594   Anisotropy =   198.8796

      5  C    Isotropic =    22.2680   Anisotropy =   157.6604

      6  Br   Isotropic =  2020.0541   Anisotropy =  1343.7628

      7  C    Isotropic =    16.2427   Anisotropy =   185.3572

      8  C    Isotropic =    31.5248   Anisotropy =   180.0017

      9  S    Isotropic =   283.4557   Anisotropy =   357.8052

     10  C    Isotropic =    39.9654   Anisotropy =    19.5394

     11  F    Isotropic =   214.9218   Anisotropy =   158.7691

     12  F    Isotropic =   226.4259   Anisotropy =   149.2412

     13  F    Isotropic =   215.7967   Anisotropy =   157.1342

     14  C    Isotropic =    20.6222   Anisotropy =   204.1642

     15  H    Isotropic =    23.1671   Anisotropy =    11.5178

     16  H    Isotropic =    22.9524   Anisotropy =    14.3257

     17  H    Isotropic =    23.1422   Anisotropy =    10.0591

 The electronic state is 1-A.
 Alpha  occ. eigenvalues -- -485.39617 -89.94944 -63.38089 -57.20042 -57.19794
 Alpha  occ. eigenvalues --  -57.19786 -25.30462 -25.30120 -25.30113 -14.77555
 Alpha  occ. eigenvalues --  -10.83581 -10.63574 -10.62033 -10.61879 -10.60138
 Alpha  occ. eigenvalues --  -10.59820 -10.59649 -10.59539  -9.04733  -8.30800
 Alpha  occ. eigenvalues --   -6.87168  -6.86250  -6.86223  -6.22770  -6.22564
 Alpha  occ. eigenvalues --   -6.22198  -2.90545  -2.90214  -2.90184  -2.89329
 Alpha  occ. eigenvalues --   -2.89329  -1.48587  -1.39808  -1.39350  -1.04006
 Alpha  occ. eigenvalues --   -1.01783  -0.94606  -0.92922  -0.87802  -0.85054
 Alpha  occ. eigenvalues --   -0.80224  -0.76745  -0.72185  -0.71280  -0.70931
 Alpha  occ. eigenvalues --   -0.66813  -0.62791  -0.60274  -0.59610  -0.59442
 Alpha  occ. eigenvalues --   -0.58654  -0.55985  -0.55488  -0.53629  -0.51706
 Alpha  occ. eigenvalues --   -0.51439  -0.51027  -0.47637  -0.46429  -0.45388
 Alpha  occ. eigenvalues --   -0.44957  -0.43906  -0.41725  -0.39784  -0.37202
 Alpha  occ. eigenvalues --   -0.35694  -0.33690  -0.32700
 Alpha virt. eigenvalues --   -0.05340  -0.03265   0.00824   0.03164   0.05408
 Alpha virt. eigenvalues --    0.07156   0.07986   0.09402   0.10210   0.11425
 Alpha virt. eigenvalues --    0.12638   0.13694   0.14462   0.14943   0.15295

 Mulliken charges:
               1
     1  N   -0.025013
     2  C   -0.216878
     3  C    0.231659
     4  C   -0.198886
     5  C    0.060288
     6  Br  -0.065912
     7  C   -0.122460
     8  C   -0.035476
     9  S   -0.005483
    10  C    0.449936
    11  F   -0.168256
    12  F   -0.160357
    13  F   -0.162076
    14  C   -0.197410
    15  H    0.208671
    16  H    0.204495
    17  H    0.203158
 Sum of Mulliken charges =   0.00000

 Dipole moment (field-independent basis, Debye):
    X=             -0.1688    Y=             -2.5480    Z=              1.3699  Tot=              2.8979
 Quadrupole moment (field-independent basis, Debye-Ang):
   XX=           -101.5194   YY=           -117.8059   ZZ=            -98.7817
   XY=             -9.9283   XZ=             -1.3777   YZ=              3.0413

 Normal termination of Gaussian 16 at Tue Sep 17 10:56:56 2024.
