 Gaussian 16, Revision C.02,

 ----------------------------------------------------------------------
 #p B3LYP/6-31G(d,p) EmpiricalDispersion=GD3BJ opt freq scf(xqc,tight)
 integral(grid=ultrafine)
 ----------------------------------------------------------------------

 ----------------------------------
 opt-freq conformers_unique/conf_ae
 ----------------------------------
 Symbolic Z-matrix:
 Charge =  0 Multiplicity = 1

 SCF Done:  E(RB3LYP) =  -951.815595855     A.U. after   14 cycles
 SCF Done:  E(RB3LYP) =  -951.816365511     A.U. after   13 cycles
 SCF Done:  E(RB3LYP) =  -951.817812121     A.U. after   13 cycles
 SCF Done:  E(RB3LYP) =  -951.817803954     A.U. after   13 cycles
 SCF Done:  E(RB3LYP) =  -951.818291908     A.U. after   13 cycles
 SCF Done:  E(RB3LYP) =  -951.818473434     A.U. after   11 cycles
 SCF Done:  E(RB3LYP) =  -951.818590550     A.U. after   12 cycles
 SCF Done:  E(RB3LYP) =  -951.818548247     A.U. after   14 cycles
 SCF Done:  E(RB3LYP) =  -951.818686394     A.U. after   13 cycles
 SCF Done:  E(RB3LYP) =  -951.818713723     A.U. after   11 cycles
 SCF Done:  E(RB3LYP) =  -951.818715597     A.U. after   11 cycles
 SCF Done:  E(RB3LYP) =  -951.818722458     A.U. after   11 cycles
 SCF Done:  E(RB3LYP) =  -951.818724411     A.U. after   10 cycles
 SCF Done:  E(RB3LYP) =  -951.818724917     A.U. after    9 cycles
 Optimization completed.
    -- Stationary point found.
 Normal termination of Gaussian 16 at Tue Sep 17 09:53:41 2024.

 ----------------------------------------------------------------------
 #P Geom=AllCheck Guess=TCheck SCRF=Check GenChk RB3LYP/6-31G(d,p) Freq
 ----------------------------------------------------------------------

 Structure from the checkpoint file:  "smiles_00119_conf_4.chk"
 ----------------------------------
 opt-freq conformers_unique/conf_ae
 ----------------------------------
 Charge =  0 Multiplicity = 1

 SCF Done:  E(RB3LYP) =  -951.818724917     A.U. after    1 cycles

                      1                      2                      3
                      A                      A                      A
 Frequencies --     34.1953               119.0966               122.3750
 Red. masses --      5.3686                 6.4853                 4.1033
 Frc consts  --      0.0037                 0.0542                 0.0362
 IR Inten    --      6.6126                 3.8858                 3.9114

                      4                      5                      6
                      A                      A                      A
 Frequencies --    153.7986               166.0410               199.3382
 Red. masses --      9.5110                 6.3875                 1.0766
 Frc consts  --      0.1326                 0.1038                 0.0252
 IR Inten    --      1.4828                 3.8566                 0.4314

                      7                      8                      9
                      A                      A                      A
 Frequencies --    294.5353               334.9612               386.0702
 Red. masses --      4.1198                 9.0226                 9.3222
 Frc consts  --      0.2106                 0.5964                 0.8187
 IR Inten    --      1.8544                 7.7976                 2.0743

                     10                     11                     12
                      A                      A                      A
 Frequencies --    429.2870               446.2430               498.1772
 Red. masses --      4.6541                10.0609                 5.5823
 Frc consts  --      0.5053                 1.1804                 0.8163
 IR Inten    --      0.3262                 6.3965                 4.8150

                     13                     14                     15
                      A                      A                      A
 Frequencies --    597.7711               642.8591               712.5313
 Red. masses --      7.9725                 8.3405                 8.3547
 Frc consts  --      1.6785                 2.0308                 2.4991
 IR Inten    --      2.0146                39.4783                12.5285

                     16                     17                     18
                      A                      A                      A
 Frequencies --    756.0179               804.7244               849.0010
 Red. masses --      8.9134                 3.7870                 9.0174
 Frc consts  --      3.0016                 1.4449                 3.8295
 IR Inten    --     23.5540                 0.3574                59.6526

                     19                     20                     21
                      A                      A                      A
 Frequencies --    886.7292              1008.2221              1010.4152
 Red. masses --      1.5654                 1.7014                 4.4524
 Frc consts  --      0.7252                 1.0190                 2.6782
 IR Inten    --     13.3157                 0.0752                 1.5316

                     22                     23                     24
                      A                      A                      A
 Frequencies --   1049.5324              1113.9292              1162.1262
 Red. masses --      7.6175                 1.4452                 2.0271
 Frc consts  --      4.9437                 1.0565                 1.6130
 IR Inten    --     41.8555                 4.8964                74.2681

                     25                     26                     27
                      A                      A                      A
 Frequencies --   1174.0117              1224.8773              1231.1594
 Red. masses --      1.2977                 2.0494                 3.8933
 Frc consts  --      1.0538                 1.8116                 3.4769
 IR Inten    --      5.3378                17.3853               190.3450

                     28                     29                     30
                      A                      A                      A
 Frequencies --   1266.7958              1342.2364              1378.1647
 Red. masses --      9.4000                 3.8113                 3.0559
 Frc consts  --      8.8877                 4.0456                 3.4197
 IR Inten    --     36.4463               297.4294               137.3003

                     31                     32                     33
                      A                      A                      A
 Frequencies --   1471.6361              1499.1751              1503.1164
 Red. masses --      2.4844                 1.2119                 1.0708
 Frc consts  --      3.1701                 1.6048                 1.4254
 IR Inten    --     62.1916                11.8312                58.3253

                     34                     35                     36
                      A                      A                      A
 Frequencies --   1506.7897              1600.7195              1614.3005
 Red. masses --      1.0753                 7.2090                 6.4109
 Frc consts  --      1.4385                10.8832                 9.8432
 IR Inten    --      6.1488               130.9523                85.5119

                     37                     38                     39
                      A                      A                      A
 Frequencies --   1815.6101              3072.5077              3157.4406
 Red. masses --     12.5962                 1.0307                 1.1059
 Frc consts  --     24.4645                 5.7329                 6.4959
 IR Inten    --    253.6752                27.6936                28.4887

                     40                     41                     42
                      A                      A                      A
 Frequencies --   3182.6636              3190.3043              3255.0760
 Red. masses --      1.1080                 1.0921                 1.0946
 Frc consts  --      6.6124                 6.5492                 6.8335
 IR Inten    --     11.7956                13.5607                 1.5964

 - Thermochemistry -
 -------------------
 Temperature   298.150 Kelvin.  Pressure   1.00000 Atm.
 Atom     1 has atomic number  6 and mass  12.00000

 Molecular mass:   172.00396 amu.
 Principal axes and moments of inertia in atomic units:
                           1         2         3
     Eigenvalues --  1141.675582631.473423610.78278
           X            0.99922  -0.03912   0.00520
           Y            0.03917   0.99918  -0.01014
           Z           -0.00480   0.01034   0.99994
 This molecule is an asymmetric top.
 Rotational symmetry number  1.
 Warning -- assumption of classical behavior for rotation
           may cause significant error
 Rotational temperatures (Kelvin)      0.07587     0.03291     0.02399
 Rotational constants (GHZ):           1.58078     0.68583     0.49982
 Zero-point vibrational energy     288686.2 (Joules/Mol)
                                   68.99766 (Kcal/Mol)
 Warning -- explicit consideration of  13 degrees of freedom as
           vibrations may cause significant error
 Vibrational temperatures:     49.20   171.35   176.07   221.28   238.90
          (Kelvin)            286.80   423.77   481.93   555.47   617.65
                              642.04   716.77   860.06   924.93  1025.17
                             1087.74  1157.82  1221.52  1275.81  1450.61
                             1453.76  1510.04  1602.70  1672.04  1689.14
                             1762.33  1771.36  1822.64  1931.18  1982.87
                             2117.36  2156.98  2162.65  2167.93  2303.08
                             2322.62  2612.26  4420.65  4542.85  4579.14
                             4590.14  4683.33

 Zero-point correction=                           0.109955 (Hartree/Particle)
 Thermal correction to Energy=                    0.119714
 Thermal correction to Enthalpy=                  0.120658
 Thermal correction to Gibbs Free Energy=         0.073317
 Sum of electronic and zero-point Energies=           -951.708770
 Sum of electronic and thermal Energies=              -951.699011
 Sum of electronic and thermal Enthalpies=            -951.698067
 Sum of electronic and thermal Free Energies=         -951.745407

                     E (Thermal)             CV                S
                      KCal/Mol        Cal/Mol-Kelvin    Cal/Mol-Kelvin
 Total                   75.121             34.492             99.636
 Electronic               0.000              0.000              0.000
 Translational            0.889              2.981             41.335
 Rotational               0.889              2.981             30.762
 Vibrational             73.344             28.530             27.539
 Vibration     1          0.594              1.983              5.570
 Vibration     2          0.609              1.933              3.115
 Vibration     3          0.610              1.930              3.063
 Vibration     4          0.619              1.898              2.625
 Vibration     5          0.624              1.884              2.480
 Vibration     6          0.637              1.841              2.139
 Vibration     7          0.689              1.684              1.448
 Vibration     8          0.716              1.606              1.236
 Vibration     9          0.755              1.500              1.015
 Vibration    10          0.791              1.406              0.861
 Vibration    11          0.805              1.369              0.807
 Vibration    12          0.854              1.254              0.663
 Vibration    13          0.956              1.037              0.454

                           ! Non-Optimized Parameters !
 Normal termination of Gaussian 16 at Tue Sep 17 09:55:03 2024.

 ----------------------------------------------------------------------
 #p M062X/def2tzvp geom=check guess=read scf(xqc,tight) integral(grid=u
 ltrafine) scrf(SMD, solvent=1,4-Dioxane) polar prop=efg volume
 ----------------------------------------------------------------------

 ---
 spe
 ---
 Structure from the checkpoint file:  "smiles_00119_conf_4.chk"
 Charge =  0 Multiplicity = 1

 SCF Done:  E(RM062X) =  -951.793424262     A.U. after   13 cycles

  Exact polarizability:     135.708       9.602     130.810      -2.006       3.638      67.943
 Approx polarizability:     145.975      12.941     146.149      -3.865       5.555      83.983

 Normal termination of Gaussian 16 at Tue Sep 17 10:34:36 2024.
 Gaussian 16:  ES64L-G16RevC.02  7-Dec-2021

 ----------------------------------------------------------------------
 #p M062X/def2tzvp geom=check guess=read scf(xqc,tight) integral(grid=u
 ltrafine) scrf(SMD, solvent=1,4-Dioxane) nmr=giao
 ----------------------------------------------------------------------

 ---
 spe
 ---
 Structure from the checkpoint file:  "smiles_00119_conf_4.chk"
 Charge =  0 Multiplicity = 1

                         Standard orientation:
 ---------------------------------------------------------------------
 Center     Atomic      Atomic             Coordinates (Angstroms)
 Number     Number       Type             X           Y           Z
 ---------------------------------------------------------------------
      1          6           0        1.796781   -2.096329    0.657123
      2          8           0        2.554320   -1.085404   -0.036250
      3          6           0        2.121388    0.163526   -0.250131
      4          8           0        2.888823    1.013065   -0.645398
      5          6           0        0.669439    0.532825   -0.027539
      6          6           0        0.362624    1.864411    0.256053
      7          6           0       -0.987065    2.169910    0.396284
      8          7           0       -1.953661    1.253097    0.247651
      9          6           0       -1.533482    0.028337   -0.041926
     10         17           0       -2.775686   -1.182953   -0.260399
     11          7           0       -0.282906   -0.396532   -0.181854
     12          1           0        1.297077   -1.687477    1.537933
     13          1           0        2.537751   -2.834164    0.966155
     14          1           0        1.055355   -2.544522   -0.002493
     15          1           0        1.146169    2.604603    0.346922
     16          1           0       -1.316967    3.178448    0.631682
 ---------------------------------------------------------------------

 SCF Done:  E(RM062X) =  -951.793424262     A.U. after    1 cycles

      1  C    Isotropic =   122.5607   Anisotropy =    75.6691

      2  O    Isotropic =   131.6288   Anisotropy =   181.5237

      3  C    Isotropic =     1.1753   Anisotropy =    99.9204

      4  O    Isotropic =  -188.8560   Anisotropy =   705.2771

      5  C    Isotropic =    -0.2590   Anisotropy =   197.3828

      6  C    Isotropic =    41.3173   Anisotropy =   213.5870

      7  C    Isotropic =    -3.6802   Anisotropy =   227.0563

      8  N    Isotropic =  -120.9431   Anisotropy =   553.0492

      9  C    Isotropic =    -3.6737   Anisotropy =   103.2780

     10  Cl   Isotropic =   547.3437   Anisotropy =   693.7596

     11  N    Isotropic =  -103.9378   Anisotropy =   514.3590

     12  H    Isotropic =    27.8666   Anisotropy =     5.0991

     13  H    Isotropic =    27.8206   Anisotropy =     7.4916

     14  H    Isotropic =    26.7220   Anisotropy =     6.5942

     15  H    Isotropic =    23.0548   Anisotropy =     8.3146

     16  H    Isotropic =    22.0902   Anisotropy =     7.2842

 The electronic state is 1-A.
 Alpha  occ. eigenvalues -- -102.66095 -19.68387 -19.63139 -14.79458 -14.79112
 Alpha  occ. eigenvalues --  -10.69725 -10.69097 -10.63653 -10.62204 -10.59665
 Alpha  occ. eigenvalues --  -10.58274  -9.82382  -7.54576  -7.54073  -7.54027
 Alpha  occ. eigenvalues --   -1.24311  -1.15685  -1.14369  -1.03520  -0.97839
 Alpha  occ. eigenvalues --   -0.89966  -0.83455  -0.80088  -0.75790  -0.68201
 Alpha  occ. eigenvalues --   -0.64113  -0.62395  -0.57953  -0.56830  -0.56565
 Alpha  occ. eigenvalues --   -0.54606  -0.54403  -0.50688  -0.50056  -0.48677
 Alpha  occ. eigenvalues --   -0.43794  -0.42740  -0.41347  -0.40932  -0.40263
 Alpha  occ. eigenvalues --   -0.38207  -0.37909  -0.35068  -0.34547
 Alpha virt. eigenvalues --   -0.05957  -0.02489   0.05621   0.06807   0.07303
 Alpha virt. eigenvalues --    0.09652   0.10653   0.11666   0.13034   0.14362
 Alpha virt. eigenvalues --    0.15144   0.15548   0.17811   0.18722   0.20006

 Mulliken charges:
               1
     1  C   -0.276885
     2  O   -0.222631
     3  C    0.355725
     4  O   -0.326012
     5  C    0.123552
     6  C   -0.185874
     7  C   -0.002723
     8  N   -0.226739
     9  C    0.193820
    10  Cl  -0.046058
    11  N   -0.273431
    12  H    0.167907
    13  H    0.166651
    14  H    0.172409
    15  H    0.195105
    16  H    0.185184
 Sum of Mulliken charges =  -0.00000

 Dipole moment (field-independent basis, Debye):
    X=             -0.7824    Y=              0.3739    Z=              2.3885  Tot=              2.5411
 Quadrupole moment (field-independent basis, Debye-Ang):
   XX=            -87.5851   YY=            -58.5111   ZZ=            -68.7250
   XY=             -5.2388   XZ=              5.3093   YZ=              0.5216

 Normal termination of Gaussian 16 at Tue Sep 17 10:47:26 2024.
