 Gaussian 16, Revision C.02,

 ----------------------------------------------------------------------
 #p B3LYP/6-31G(d,p) EmpiricalDispersion=GD3BJ opt freq scf(xqc,tight)
 integral(grid=ultrafine)
 ----------------------------------------------------------------------

 ----------------------------------
 opt-freq conformers_unique/conf_aa
 ----------------------------------
 Symbolic Z-matrix:
 Charge =  0 Multiplicity = 1

 SCF Done:  E(RB3LYP) =  -2996.56630798     A.U. after   15 cycles
 SCF Done:  E(RB3LYP) =  -2996.56769286     A.U. after   11 cycles
 SCF Done:  E(RB3LYP) =  -2996.56785522     A.U. after   11 cycles
 SCF Done:  E(RB3LYP) =  -2996.56789656     A.U. after   10 cycles
 SCF Done:  E(RB3LYP) =  -2996.56790293     A.U. after    9 cycles
 SCF Done:  E(RB3LYP) =  -2996.56790668     A.U. after    8 cycles
 SCF Done:  E(RB3LYP) =  -2996.56790736     A.U. after    8 cycles
 SCF Done:  E(RB3LYP) =  -2996.56790794     A.U. after    8 cycles
 SCF Done:  E(RB3LYP) =  -2996.56790821     A.U. after    8 cycles
 SCF Done:  E(RB3LYP) =  -2996.56790834     A.U. after    8 cycles
 Optimization completed.
    -- Stationary point found.
 Normal termination of Gaussian 16 at Tue Sep 17 09:55:19 2024.

 ----------------------------------------------------------------------
 #P Geom=AllCheck Guess=TCheck SCRF=Check GenChk RB3LYP/6-31G(d,p) Freq
 ----------------------------------------------------------------------

 Structure from the checkpoint file:  "smiles_00017_conf_0.chk"
 ----------------------------------
 opt-freq conformers_unique/conf_aa
 ----------------------------------
 Charge =  0 Multiplicity = 1

 SCF Done:  E(RB3LYP) =  -2996.56790834     A.U. after    1 cycles

                      1                      2                      3
                      A                      A                      A
 Frequencies --     42.6633                73.7189               108.2862
 Red. masses --      3.8426                 2.9692                 5.0229
 Frc consts  --      0.0041                 0.0095                 0.0347
 IR Inten    --      1.0639                 0.0172                 0.3468

                      4                      5                      6
                      A                      A                      A
 Frequencies --    156.5520               207.9177               214.7143
 Red. masses --      4.3497                 1.8201                 1.2516
 Frc consts  --      0.0628                 0.0464                 0.0340
 IR Inten    --      0.2520                 0.4176                 0.0942

                      7                      8                      9
                      A                      A                      A
 Frequencies --    253.9344               265.2969               292.8495
 Red. masses --      1.5209                 4.2495                 3.7993
 Frc consts  --      0.0578                 0.1762                 0.1920
 IR Inten    --      0.2434                 0.2833                 0.3042

                     10                     11                     12
                      A                      A                      A
 Frequencies --    339.4959               402.8922               452.6624
 Red. masses --      3.1743                 3.7413                 2.8464
 Frc consts  --      0.2156                 0.3578                 0.3436
 IR Inten    --      1.1731                 3.0144                 1.3499

                     13                     14                     15
                      A                      A                      A
 Frequencies --    458.4712               504.8111               559.9909
 Red. masses --      3.2212                 3.3371                 3.7737
 Frc consts  --      0.3989                 0.5011                 0.6972
 IR Inten    --      1.9512                 1.4232                 0.1095

                     16                     17                     18
                      A                      A                      A
 Frequencies --    614.3293               679.3410               742.2525
 Red. masses --      5.9603                 6.3666                 2.9151
 Frc consts  --      1.3253                 1.7311                 0.9462
 IR Inten    --      3.6062                19.7349                 1.6412

                     19                     20                     21
                      A                      A                      A
 Frequencies --    764.6293               801.6066               863.1350
 Red. masses --      1.3551                 3.6941                 1.5328
 Frc consts  --      0.4668                 1.3986                 0.6728
 IR Inten    --     51.6711                 2.4343                 1.5016

                     22                     23                     24
                      A                      A                      A
 Frequencies --    875.8831               943.9665               948.1059
 Red. masses --      2.7450                 1.2690                 1.3370
 Frc consts  --      1.2408                 0.6662                 0.7081
 IR Inten    --      5.0953                 0.5797                 2.4494

                     25                     26                     27
                      A                      A                      A
 Frequencies --    957.9507               982.3481               986.1857
 Red. masses --      1.3671                 1.3015                 3.1534
 Frc consts  --      0.7391                 0.7400                 1.8069
 IR Inten    --      0.1134                 1.2947                47.2076

                     28                     29                     30
                      A                      A                      A
 Frequencies --   1049.3411              1079.0803              1145.2128
 Red. masses --      7.6847                 1.9137                 1.7113
 Frc consts  --      4.9855                 1.3129                 1.3224
 IR Inten    --     50.0740                10.7616                31.7846

                     31                     32                     33
                      A                      A                      A
 Frequencies --   1163.9534              1166.5717              1192.5428
 Red. masses --      1.7751                 1.8956                 1.1251
 Frc consts  --      1.4170                 1.5199                 0.9427
 IR Inten    --     39.4550                34.7010                 4.2903

                     34                     35                     36
                      A                      A                      A
 Frequencies --   1210.5013              1289.4248              1316.3261
 Red. masses --      1.8815                 2.0639                 2.1513
 Frc consts  --      1.6244                 2.0217                 2.1962
 IR Inten    --     18.3464                69.5820               174.8012

                     37                     38                     39
                      A                      A                      A
 Frequencies --   1350.6182              1377.0505              1393.2769
 Red. masses --      7.1158                 1.3071                 1.2661
 Frc consts  --      7.6479                 1.4603                 1.4481
 IR Inten    --     36.0137                 9.6087                 9.3854

                     40                     41                     42
                      A                      A                      A
 Frequencies --   1420.8748              1433.8752              1484.2737
 Red. masses --      1.3761                 1.2590                 2.2080
 Frc consts  --      1.6369                 1.5251                 2.8660
 IR Inten    --     18.1105                18.2888                19.2267

                     43                     44                     45
                      A                      A                      A
 Frequencies --   1494.7148              1502.8281              1508.5023
 Red. masses --      1.0667                 1.0522                 1.0591
 Frc consts  --      1.4041                 1.4001                 1.4200
 IR Inten    --      1.8400                 4.3971                 7.9215

                     46                     47                     48
                      A                      A                      A
 Frequencies --   1524.3179              1528.5192              1626.3171
 Red. masses --      1.6730                 1.3885                 5.8252
 Frc consts  --      2.2904                 1.9113                 9.0776
 IR Inten    --     94.3854                47.4165                 8.0876

                     49                     50                     51
                      A                      A                      A
 Frequencies --   1648.9885              3031.5715              3054.5865
 Red. masses --      6.3913                 1.0843                 1.0353
 Frc consts  --     10.2394                 5.8715                 5.6914
 IR Inten    --     55.6073                25.1058                12.3443

                     52                     53                     54
                      A                      A                      A
 Frequencies --   3059.2747              3128.3878              3136.5948
 Red. masses --      1.0355                 1.1030                 1.1026
 Frc consts  --      5.7101                 6.3601                 6.3913
 IR Inten    --     16.2836                 3.9424                40.2497

                     55                     56                     57
                      A                      A                      A
 Frequencies --   3140.1405              3142.3765              3191.0364
 Red. masses --      1.1025                 1.1033                 1.0864
 Frc consts  --      6.4050                 6.4190                 6.5180
 IR Inten    --     17.0856                23.4355                 3.3089

                     58                     59                     60
                      A                      A                      A
 Frequencies --   3206.9063              3220.8540              3229.1388
 Red. masses --      1.0911                 1.0950                 1.0926
 Frc consts  --      6.6116                 6.6928                 6.7127
 IR Inten    --     13.5085                11.4774                 8.0069

 - Thermochemistry -
 -------------------
 Temperature   298.150 Kelvin.  Pressure   1.00000 Atm.
 Atom     1 has atomic number  6 and mass  12.00000

 Molecular mass:   213.99933 amu.
 Principal axes and moments of inertia in atomic units:
                           1         2         3
     Eigenvalues --  1988.644332751.050614466.86454
           X            0.98549  -0.16968   0.00447
           Y            0.16964   0.98547   0.00856
           Z           -0.00586  -0.00768   0.99995
 This molecule is an asymmetric top.
 Rotational symmetry number  1.
 Warning -- assumption of classical behavior for rotation
           may cause significant error
 Rotational temperatures (Kelvin)      0.04355     0.03148     0.01939
 Rotational constants (GHZ):           0.90752     0.65602     0.40403
 Zero-point vibrational energy     472177.8 (Joules/Mol)
                                  112.85321 (Kcal/Mol)
 Warning -- explicit consideration of  16 degrees of freedom as
           vibrations may cause significant error
 Vibrational temperatures:     61.38   106.07   155.80   225.24   299.15
          (Kelvin)            308.93   365.35   381.70   421.35   488.46
                              579.67   651.28   659.64   726.31   805.70
                              883.88   977.42  1067.94  1100.13  1153.33
                             1241.86  1260.20  1358.16  1364.11  1378.28
                             1413.38  1418.90  1509.77  1552.56  1647.71
                             1674.67  1678.44  1715.80  1741.64  1855.19
                             1893.90  1943.24  1981.27  2004.61  2044.32
                             2063.03  2135.54  2150.56  2162.23  2170.40
                             2193.15  2199.20  2339.91  2372.53  4361.76
                             4394.87  4401.61  4501.05  4512.86  4517.96
                             4521.18  4591.19  4614.02  4634.09  4646.01

 Zero-point correction=                           0.179843 (Hartree/Particle)
 Thermal correction to Energy=                    0.190842
 Thermal correction to Enthalpy=                  0.191787
 Thermal correction to Gibbs Free Energy=         0.141757
 Sum of electronic and zero-point Energies=          -2996.388065
 Sum of electronic and thermal Energies=             -2996.377066
 Sum of electronic and thermal Enthalpies=           -2996.376122
 Sum of electronic and thermal Free Energies=        -2996.426152

                     E (Thermal)             CV                S
                      KCal/Mol        Cal/Mol-Kelvin    Cal/Mol-Kelvin
 Total                  119.755             40.949            105.297
 Electronic               0.000              0.000              0.000
 Translational            0.889              2.981             41.986
 Rotational               0.889              2.981             31.569
 Vibrational            117.978             34.988             31.742
 Vibration     1          0.595              1.980              5.131
 Vibration     2          0.599              1.966              4.052
 Vibration     3          0.606              1.943              3.299
 Vibration     4          0.620              1.895              2.591
 Vibration     5          0.641              1.829              2.062
 Vibration     6          0.645              1.819              2.003
 Vibration     7          0.665              1.756              1.703
 Vibration     8          0.671              1.737              1.627
 Vibration     9          0.688              1.687              1.457
 Vibration    10          0.719              1.597              1.215
 Vibration    11          0.768              1.464              0.952
 Vibration    12          0.811              1.355              0.788
 Vibration    13          0.816              1.342              0.771
 Vibration    14          0.860              1.239              0.646
 Vibration    15          0.916              1.118              0.524
 Vibration    16          0.974              1.002              0.426

 Optimization completed.
    -- Stationary point found.
 Normal termination of Gaussian 16 at Tue Sep 17 09:57:32 2024.

 ----------------------------------------------------------------------
 #p M062X/def2tzvp geom=check guess=read scf(xqc,tight) integral(grid=u
 ltrafine) scrf(SMD, solvent=1,4-Dioxane) polar prop=efg volume
 ----------------------------------------------------------------------

 ---
 spe
 ---
 Structure from the checkpoint file:  "smiles_00017_conf_0.chk"
 Charge =  0 Multiplicity = 1

 SCF Done:  E(RM062X) =  -2998.97647957     A.U. after   12 cycles

  Exact polarizability:     169.612      -5.387     177.895      -2.547      -1.557      96.919
 Approx polarizability:     174.102      -0.399     192.704      -4.253      -3.360     114.150

 Normal termination of Gaussian 16 at Tue Sep 17 10:41:09 2024.
 Gaussian 16:  ES64L-G16RevC.02  7-Dec-2021

 ----------------------------------------------------------------------
 #p M062X/def2tzvp geom=check guess=read scf(xqc,tight) integral(grid=u
 ltrafine) scrf(SMD, solvent=1,4-Dioxane) nmr=giao
 ----------------------------------------------------------------------

 ---
 spe
 ---
 Structure from the checkpoint file:  "smiles_00017_conf_0.chk"
 Charge =  0 Multiplicity = 1

                         Standard orientation:
 ---------------------------------------------------------------------
 Center     Atomic      Atomic             Coordinates (Angstroms)
 Number     Number       Type             X           Y           Z
 ---------------------------------------------------------------------
      1          6           0        3.289123   -1.249556   -0.724271
      2          6           0        2.586253   -0.000702   -0.213311
      3          6           0        3.043790    0.403130    1.185395
      4          8           0        1.184860   -0.331798   -0.205565
      5          6           0        0.247102    0.644511   -0.147212
      6          6           0        0.505227    2.019922   -0.221468
      7          6           0       -0.542013    2.940962   -0.175196
      8          6           0       -1.860892    2.513011   -0.052702
      9          6           0       -2.131871    1.145919    0.024145
     10          6           0       -1.090677    0.227918   -0.021186
     11         35           0       -1.479088   -1.635306    0.086288
     12          1           0        4.368771   -1.082439   -0.776595
     13          1           0        2.924711   -1.514017   -1.719782
     14          1           0        3.097279   -2.090851   -0.052143
     15          1           0        2.753771    0.820162   -0.922920
     16          1           0        2.886260   -0.427522    1.879482
     17          1           0        2.489744    1.268354    1.556795
     18          1           0        4.108841    0.654234    1.178739
     19          1           0        1.522587    2.377416   -0.315511
     20          1           0       -0.314911    4.000725   -0.234508
     21          1           0       -2.674924    3.228781   -0.014712
     22          1           0       -3.149175    0.784567    0.120414
 ---------------------------------------------------------------------

 SCF Done:  E(RM062X) =  -2998.97647957     A.U. after    1 cycles

      1  C    Isotropic =   162.1658   Anisotropy =    37.2583

      2  C    Isotropic =   112.5229   Anisotropy =    66.5470

      3  C    Isotropic =   166.0527   Anisotropy =    34.0221

      4  O    Isotropic =   161.1355   Anisotropy =    98.6296

      5  C    Isotropic =     8.8335   Anisotropy =   163.6107

      6  C    Isotropic =    54.4851   Anisotropy =   185.2462

      7  C    Isotropic =    35.6470   Anisotropy =   214.8470

      8  C    Isotropic =    44.9609   Anisotropy =   196.5502

      9  C    Isotropic =    28.4807   Anisotropy =   183.1049

     10  C    Isotropic =    38.1696   Anisotropy =   113.6699

     11  Br   Isotropic =  2194.5050   Anisotropy =  1026.9430

     12  H    Isotropic =    30.6654   Anisotropy =     9.9826

     13  H    Isotropic =    30.2760   Anisotropy =     8.7257

     14  H    Isotropic =    30.3545   Anisotropy =     6.5664

     15  H    Isotropic =    27.1932   Anisotropy =     4.2093

     16  H    Isotropic =    30.9625   Anisotropy =     7.3208

     17  H    Isotropic =    30.1118   Anisotropy =     6.4012

     18  H    Isotropic =    30.8532   Anisotropy =    10.2973

     19  H    Isotropic =    24.2645   Anisotropy =    10.2296

     20  H    Isotropic =    23.8142   Anisotropy =     5.9235

     21  H    Isotropic =    24.1912   Anisotropy =     5.0640

     22  H    Isotropic =    23.5736   Anisotropy =    10.7165

 The electronic state is 1-A.
 Alpha  occ. eigenvalues -- -485.36883 -63.35352 -57.17302 -57.17064 -57.17051
 Alpha  occ. eigenvalues --  -19.65722 -10.61717 -10.60033 -10.59505 -10.55322
 Alpha  occ. eigenvalues --  -10.54959 -10.54825 -10.54268 -10.52738 -10.52565
 Alpha  occ. eigenvalues --   -9.01992  -6.84411  -6.83530  -6.83485  -2.87788
 Alpha  occ. eigenvalues --   -2.87476  -2.87429  -2.86607  -2.86606  -1.19353
 Alpha  occ. eigenvalues --   -0.97349  -0.90117  -0.88830  -0.83988  -0.80950
 Alpha  occ. eigenvalues --   -0.78449  -0.72393  -0.68166  -0.65922  -0.61468
 Alpha  occ. eigenvalues --   -0.55959  -0.55683  -0.54102  -0.52019  -0.50365
 Alpha  occ. eigenvalues --   -0.48140  -0.47106  -0.45986  -0.45411  -0.44448
 Alpha  occ. eigenvalues --   -0.43030  -0.42589  -0.40879  -0.39031  -0.38464
 Alpha  occ. eigenvalues --   -0.37391  -0.34172  -0.30375  -0.27777
 Alpha virt. eigenvalues --    0.01136   0.02758   0.04263   0.07162   0.09685
 Alpha virt. eigenvalues --    0.10739   0.11226   0.12463   0.13034   0.13370
 Alpha virt. eigenvalues --    0.14140   0.14770   0.16278   0.17581   0.18056

 Mulliken charges:
               1
     1  C   -0.428388
     2  C   -0.036713
     3  C   -0.428598
     4  O   -0.272171
     5  C    0.334332
     6  C   -0.249073
     7  C   -0.166897
     8  C   -0.192535
     9  C   -0.135894
    10  C   -0.089990
    11  Br  -0.108296
    12  H    0.147713
    13  H    0.156309
    14  H    0.157905
    15  H    0.142897
    16  H    0.157820
    17  H    0.165156
    18  H    0.156512
    19  H    0.190030
    20  H    0.164266
    21  H    0.162939
    22  H    0.172676
 Sum of Mulliken charges =  -0.00000

 Dipole moment (field-independent basis, Debye):
    X=              2.3957    Y=              2.3954    Z=             -0.0475  Tot=              3.3882
 Quadrupole moment (field-independent basis, Debye-Ang):
   XX=            -67.7409   YY=            -74.1571   ZZ=            -81.9914
   XY=             -1.4574   XZ=             -0.7691   YZ=             -0.4609

 Normal termination of Gaussian 16 at Tue Sep 17 10:57:00 2024.
