 Gaussian 16, Revision C.02,

 ----------------------------------------------------------------------
 #p B3LYP/6-31G(d,p) EmpiricalDispersion=GD3BJ opt freq scf(xqc,tight)
 integral(grid=ultrafine)
 ----------------------------------------------------------------------

 ----------------------------------
 opt-freq conformers_unique/conf_ae
 ----------------------------------
 Symbolic Z-matrix:
 Charge =  0 Multiplicity = 1

 SCF Done:  E(RB3LYP) =  -899.903242924     A.U. after   15 cycles
 SCF Done:  E(RB3LYP) =  -899.904890803     A.U. after   12 cycles
 SCF Done:  E(RB3LYP) =  -899.904835199     A.U. after   11 cycles
 SCF Done:  E(RB3LYP) =  -899.905116217     A.U. after   11 cycles
 SCF Done:  E(RB3LYP) =  -899.905148508     A.U. after   11 cycles
 SCF Done:  E(RB3LYP) =  -899.905208042     A.U. after   11 cycles
 SCF Done:  E(RB3LYP) =  -899.905298158     A.U. after   12 cycles
 SCF Done:  E(RB3LYP) =  -899.905404574     A.U. after   11 cycles
 SCF Done:  E(RB3LYP) =  -899.905650053     A.U. after   12 cycles
 SCF Done:  E(RB3LYP) =  -899.905774159     A.U. after   11 cycles
 SCF Done:  E(RB3LYP) =  -899.906589421     A.U. after   13 cycles
 SCF Done:  E(RB3LYP) =  -899.906461036     A.U. after   12 cycles
 SCF Done:  E(RB3LYP) =  -899.906820655     A.U. after   11 cycles
 SCF Done:  E(RB3LYP) =  -899.906828648     A.U. after   10 cycles
 SCF Done:  E(RB3LYP) =  -899.906830945     A.U. after    8 cycles
 SCF Done:  E(RB3LYP) =  -899.906834488     A.U. after   10 cycles
 SCF Done:  E(RB3LYP) =  -899.906834780     A.U. after    8 cycles
 Optimization completed.
    -- Stationary point found.
 Normal termination of Gaussian 16 at Tue Sep 17 09:58:23 2024.

 ----------------------------------------------------------------------
 #P Geom=AllCheck Guess=TCheck SCRF=Check GenChk RB3LYP/6-31G(d,p) Freq
 ----------------------------------------------------------------------

 Structure from the checkpoint file:  "smiles_00003_conf_4.chk"
 ----------------------------------
 opt-freq conformers_unique/conf_ae
 ----------------------------------
 Charge =  0 Multiplicity = 1

 SCF Done:  E(RB3LYP) =  -899.906834780     A.U. after    1 cycles

                      1                      2                      3
                      A                      A                      A
 Frequencies --     47.2747                58.2728               101.5185
 Red. masses --      4.0393                 7.6416                 6.5920
 Frc consts  --      0.0053                 0.0153                 0.0400
 IR Inten    --      2.1088                 3.1896                 1.8016

                      4                      5                      6
                      A                      A                      A
 Frequencies --    172.9859               196.2271               269.3728
 Red. masses --      3.5402                 1.1760                 6.6393
 Frc consts  --      0.0624                 0.0267                 0.2838
 IR Inten    --      0.7870                 0.1330                 0.3864

                      7                      8                      9
                      A                      A                      A
 Frequencies --    317.6606               340.3422               387.2129
 Red. masses --     10.9722                 4.7172                 4.4520
 Frc consts  --      0.6523                 0.3219                 0.3933
 IR Inten    --      1.0515                 3.3751                 1.6207

                     10                     11                     12
                      A                      A                      A
 Frequencies --    424.7359               495.1575               499.3726
 Red. masses --      3.1685                 4.2002                 2.9775
 Frc consts  --      0.3368                 0.6067                 0.4375
 IR Inten    --      0.4648                47.1340                 4.7643

                     13                     14                     15
                      A                      A                      A
 Frequencies --    532.3022               549.0325               647.5981
 Red. masses --      1.8646                 3.2038                 3.5128
 Frc consts  --      0.3113                 0.5690                 0.8680
 IR Inten    --     12.5019                15.7423                22.3729

                     16                     17                     18
                      A                      A                      A
 Frequencies --    652.1196               699.5609               729.8993
 Red. masses --      2.1708                 4.9825                 4.5990
 Frc consts  --      0.5439                 1.4366                 1.4436
 IR Inten    --     63.6745                 2.3025                12.3392

                     19                     20                     21
                      A                      A                      A
 Frequencies --    803.9134               828.8500               844.5755
 Red. masses --      3.6765                 1.2549                 1.7187
 Frc consts  --      1.3999                 0.5079                 0.7223
 IR Inten    --     12.3815                 0.2552                37.5957

                     22                     23                     24
                      A                      A                      A
 Frequencies --    929.3270               953.4234               960.0167
 Red. masses --      3.7985                 1.2996                 1.3272
 Frc consts  --      1.9329                 0.6960                 0.7207
 IR Inten    --      5.9428                 0.0937                 0.1684

                     25                     26                     27
                      A                      A                      A
 Frequencies --   1030.1486              1031.6414              1057.6468
 Red. masses --      1.7845                 2.7107                 1.7356
 Frc consts  --      1.1158                 1.6998                 1.1439
 IR Inten    --     43.0052                 2.0891                 9.6721

                     28                     29                     30
                      A                      A                      A
 Frequencies --   1116.9130              1140.1218              1207.1226
 Red. masses --      2.9753                 1.3078                 1.1278
 Frc consts  --      2.1869                 1.0016                 0.9682
 IR Inten    --     59.1873                 5.1428                 6.7428

                     31                     32                     33
                      A                      A                      A
 Frequencies --   1258.8331              1327.1434              1337.3747
 Red. masses --      2.4899                 1.6026                 2.4437
 Frc consts  --      2.3247                 1.6631                 2.5751
 IR Inten    --     19.3411                27.1208               147.7564

                     34                     35                     36
                      A                      A                      A
 Frequencies --   1348.2298              1412.5894              1431.7825
 Red. masses --      4.1885                 1.4296                 2.5192
 Frc consts  --      4.4858                 1.6808                 3.0428
 IR Inten    --    158.9795               103.1665                 7.9944

                     37                     38                     39
                      A                      A                      A
 Frequencies --   1485.4944              1492.7017              1502.4845
 Red. masses --      1.0931                 1.7602                 1.1631
 Frc consts  --      1.4211                 2.3108                 1.5470
 IR Inten    --     24.0116                 7.5436                15.9749

                     40                     41                     42
                      A                      A                      A
 Frequencies --   1542.9944              1632.9256              1658.1720
 Red. masses --      2.6300                 6.5638                 5.9685
 Frc consts  --      3.6892                10.3118                 9.6688
 IR Inten    --    209.4783                 2.4094                16.0937

                     43                     44                     45
                      A                      A                      A
 Frequencies --   1795.9214              3064.3512              3136.4053
 Red. masses --      8.2321                 1.0388                 1.0975
 Frc consts  --     15.6436                 5.7474                 6.3607
 IR Inten    --    471.9847                 2.7548                 7.2347

                     46                     47                     48
                      A                      A                      A
 Frequencies --   3174.1663              3193.3191              3217.3913
 Red. masses --      1.1042                 1.0898                 1.0893
 Frc consts  --      6.5547                 6.5474                 6.6438
 IR Inten    --      8.6143                 7.4630                 2.3408

                     49                     50                     51
                      A                      A                      A
 Frequencies --   3223.4868              3234.7383              3601.5847
 Red. masses --      1.0941                 1.0941                 1.0756
 Frc consts  --      6.6983                 6.7453                 8.2200
 IR Inten    --      2.5732                 3.9596                29.4299

 - Thermochemistry -
 -------------------
 Temperature   298.150 Kelvin.  Pressure   1.00000 Atm.
 Atom     1 has atomic number  6 and mass  12.00000

 Molecular mass:   169.02944 amu.
 Principal axes and moments of inertia in atomic units:
                           1         2         3
     Eigenvalues --   548.959444459.721864860.35597
           X            0.99990  -0.01317   0.00459
           Y            0.01316   0.99991   0.00120
           Z           -0.00460  -0.00114   0.99999
 This molecule is an asymmetric top.
 Rotational symmetry number  1.
 Warning -- assumption of classical behavior for rotation
           may cause significant error
 Rotational temperatures (Kelvin)      0.15778     0.01942     0.01782
 Rotational constants (GHZ):           3.28757     0.40468     0.37132
 Zero-point vibrational energy     383381.8 (Joules/Mol)
                                   91.63046 (Kcal/Mol)
 Warning -- explicit consideration of  14 degrees of freedom as
           vibrations may cause significant error
 Vibrational temperatures:     68.02    83.84   146.06   248.89   282.33
          (Kelvin)            387.57   457.04   489.68   557.11   611.10
                              712.42   718.49   765.86   789.94   931.75
                              938.25  1006.51  1050.16  1156.65  1192.53
                             1215.16  1337.09  1371.76  1381.25  1482.15
                             1484.30  1521.72  1606.99  1640.38  1736.78
                             1811.18  1909.46  1924.18  1939.80  2032.40
                             2060.02  2137.30  2147.66  2161.74  2220.02
                             2349.42  2385.74  2583.93  4408.92  4512.59
                             4566.92  4594.47  4629.11  4637.88  4654.07
                             5181.88

 Zero-point correction=                           0.146022 (Hartree/Particle)
 Thermal correction to Energy=                    0.156168
 Thermal correction to Enthalpy=                  0.157113
 Thermal correction to Gibbs Free Energy=         0.109184
 Sum of electronic and zero-point Energies=           -899.760812
 Sum of electronic and thermal Energies=              -899.750666
 Sum of electronic and thermal Enthalpies=            -899.749722
 Sum of electronic and thermal Free Energies=         -899.797651

                     E (Thermal)             CV                S
                      KCal/Mol        Cal/Mol-Kelvin    Cal/Mol-Kelvin
 Total                   97.997             37.786            100.874
 Electronic               0.000              0.000              0.000
 Translational            0.889              2.981             41.283
 Rotational               0.889              2.981             30.854
 Vibrational             96.220             31.825             28.737
 Vibration     1          0.595              1.979              4.928
 Vibration     2          0.596              1.974              4.515
 Vibration     3          0.604              1.948              3.425
 Vibration     4          0.626              1.876              2.403
 Vibration     5          0.636              1.845              2.168
 Vibration     6          0.674              1.730              1.600
 Vibration     7          0.704              1.640              1.322
 Vibration     8          0.720              1.595              1.211
 Vibration     9          0.756              1.497              1.011
 Vibration    10          0.787              1.416              0.876
 Vibration    11          0.851              1.261              0.670
 Vibration    12          0.855              1.251              0.660
 Vibration    13          0.887              1.179              0.582
 Vibration    14          0.904              1.142              0.546

 Optimization completed.
    -- Stationary point found.
 Normal termination of Gaussian 16 at Tue Sep 17 09:59:22 2024.

 ----------------------------------------------------------------------
 #p M062X/def2tzvp geom=check guess=read scf(xqc,tight) integral(grid=u
 ltrafine) scrf(SMD, solvent=1,4-Dioxane) polar prop=efg volume
 ----------------------------------------------------------------------

 ---
 spe
 ---
 Structure from the checkpoint file:  "smiles_00003_conf_4.chk"
 Charge =  0 Multiplicity = 1

 SCF Done:  E(RM062X) =  -899.854535125     A.U. after   12 cycles

  Exact polarizability:     200.171       3.258     125.622      -4.166       6.361      79.477
 Approx polarizability:     196.946       6.533     145.660      -6.504       9.725      97.152

 Normal termination of Gaussian 16 at Tue Sep 17 10:27:05 2024.
 Gaussian 16:  ES64L-G16RevC.02  7-Dec-2021

 ----------------------------------------------------------------------
 #p M062X/def2tzvp geom=check guess=read scf(xqc,tight) integral(grid=u
 ltrafine) scrf(SMD, solvent=1,4-Dioxane) nmr=giao
 ----------------------------------------------------------------------

 ---
 spe
 ---
 Structure from the checkpoint file:  "smiles_00003_conf_4.chk"
 Charge =  0 Multiplicity = 1

                         Standard orientation:
 ---------------------------------------------------------------------
 Center     Atomic      Atomic             Coordinates (Angstroms)
 Number     Number       Type             X           Y           Z
 ---------------------------------------------------------------------
      1          6           0        2.906612   -1.390704    0.685186
      2          6           0        3.125720   -0.035423    0.044142
      3          8           0        4.241946    0.427000   -0.134489
      4          7           0        2.016168    0.704392   -0.333208
      5          6           0        0.638555    0.432262   -0.217770
      6          6           0        0.093379   -0.819724   -0.531155
      7          6           0       -1.275996   -1.044455   -0.412779
      8          6           0       -2.112253   -0.004962   -0.013580
      9         17           0       -3.840500   -0.283410    0.121702
     10          6           0       -1.593501    1.257054    0.271067
     11          6           0       -0.221903    1.467020    0.176179
     12          1           0        2.843614   -2.167150   -0.083972
     13          1           0        3.781043   -1.600480    1.301209
     14          1           0        1.998361   -1.435081    1.289312
     15          1           0        2.275452    1.637545   -0.628442
     16          1           0        0.733127   -1.615621   -0.890560
     17          1           0       -1.693691   -2.015403   -0.652111
     18          1           0       -2.253832    2.060280    0.576352
     19          1           0        0.192015    2.440731    0.419908
 ---------------------------------------------------------------------

 SCF Done:  E(RM062X) =  -899.854535125     A.U. after    1 cycles

      1  C    Isotropic =   162.8746   Anisotropy =    34.2185

      2  C    Isotropic =    -5.1446   Anisotropy =   144.8957

      3  O    Isotropic =  -164.2105   Anisotropy =   677.8247

      4  N    Isotropic =    92.8117   Anisotropy =   131.3126

      5  C    Isotropic =    25.2550   Anisotropy =   183.9677

      6  C    Isotropic =    40.3412   Anisotropy =   192.8298

      7  C    Isotropic =    34.2889   Anisotropy =   186.8669

      8  C    Isotropic =    27.3814   Anisotropy =   139.7481

      9  Cl   Isotropic =   689.3209   Anisotropy =   505.8417

     10  C    Isotropic =    33.6310   Anisotropy =   187.5451

     11  C    Isotropic =    41.7995   Anisotropy =   179.7822

     12  H    Isotropic =    29.6487   Anisotropy =     6.5619

     13  H    Isotropic =    29.9248   Anisotropy =     7.9234

     14  H    Isotropic =    29.6570   Anisotropy =     4.9841

     15  H    Isotropic =    24.6761   Anisotropy =     5.5703

     16  H    Isotropic =    23.9242   Anisotropy =     8.7167

     17  H    Isotropic =    23.6943   Anisotropy =     8.7523

     18  H    Isotropic =    23.7292   Anisotropy =     8.3487

     19  H    Isotropic =    24.2111   Anisotropy =     7.3602

 The electronic state is 1-A.
 Alpha  occ. eigenvalues -- -102.64979 -19.60004 -14.78520 -10.65607 -10.61103
 Alpha  occ. eigenvalues --  -10.60473 -10.56397 -10.56394 -10.56132 -10.56125
 Alpha  occ. eigenvalues --  -10.54180  -9.81223  -7.53421  -7.52909  -7.52899
 Alpha  occ. eigenvalues --   -1.16822  -1.05378  -0.99554  -0.93472  -0.86681
 Alpha  occ. eigenvalues --   -0.84331  -0.82698  -0.72247  -0.70702  -0.66060
 Alpha  occ. eigenvalues --   -0.62449  -0.56739  -0.56330  -0.54769  -0.52751
 Alpha  occ. eigenvalues --   -0.52256  -0.50611  -0.48900  -0.47862  -0.46822
 Alpha  occ. eigenvalues --   -0.45111  -0.44471  -0.42667  -0.41494  -0.38245
 Alpha  occ. eigenvalues --   -0.35937  -0.34209  -0.32922  -0.28384
 Alpha virt. eigenvalues --   -0.00049   0.00140   0.05640   0.06059   0.07603
 Alpha virt. eigenvalues --    0.08859   0.11065   0.11568   0.12443   0.13846
 Alpha virt. eigenvalues --    0.14420   0.16358   0.16680   0.17281   0.17942

 Mulliken charges:
               1
     1  C   -0.534569
     2  C    0.351554
     3  O   -0.394747
     4  N   -0.378666
     5  C    0.281760
     6  C   -0.249769
     7  C   -0.163846
     8  C    0.060897
     9  Cl  -0.098806
    10  C   -0.176376
    11  C   -0.238587
    12  H    0.180706
    13  H    0.174705
    14  H    0.190436
    15  H    0.264068
    16  H    0.193745
    17  H    0.177501
    18  H    0.177250
    19  H    0.182744
 Sum of Mulliken charges =  -0.00000

 Dipole moment (field-independent basis, Debye):
    X=             -1.6522    Y=             -0.4762    Z=              0.2869  Tot=              1.7432
 Quadrupole moment (field-independent basis, Debye-Ang):
   XX=            -98.3816   YY=            -61.0710   ZZ=            -72.6748
   XY=             -5.6514   XZ=              1.6346   YZ=              1.3637

 Normal termination of Gaussian 16 at Tue Sep 17 10:37:09 2024.
