 Gaussian 16, Revision C.02,

 ----------------------------------------------------------------------
 #p B3LYP/6-31G(d,p) EmpiricalDispersion=GD3BJ opt freq scf(xqc,tight)
 integral(grid=ultrafine)
 ----------------------------------------------------------------------

 ----------------------------------
 opt-freq conformers_unique/conf_ac
 ----------------------------------
 Symbolic Z-matrix:
 Charge =  0 Multiplicity = 1

 SCF Done:  E(RB3LYP) =  -3233.08895424     A.U. after   14 cycles
 SCF Done:  E(RB3LYP) =  -3233.09030443     A.U. after   11 cycles
 SCF Done:  E(RB3LYP) =  -3233.09042335     A.U. after   11 cycles
 SCF Done:  E(RB3LYP) =  -3233.09053140     A.U. after   11 cycles
 SCF Done:  E(RB3LYP) =  -3233.09059058     A.U. after   10 cycles
 SCF Done:  E(RB3LYP) =  -3233.09069588     A.U. after   11 cycles
 SCF Done:  E(RB3LYP) =  -3233.09076809     A.U. after   11 cycles
 SCF Done:  E(RB3LYP) =  -3233.09082796     A.U. after   11 cycles
 SCF Done:  E(RB3LYP) =  -3233.09085176     A.U. after   10 cycles
 SCF Done:  E(RB3LYP) =  -3233.09086155     A.U. after    9 cycles
 Optimization completed.
    -- Stationary point found.
 Normal termination of Gaussian 16 at Tue Sep 17 09:47:52 2024.

 ----------------------------------------------------------------------
 #P Geom=AllCheck Guess=TCheck SCRF=Check GenChk RB3LYP/6-31G(d,p) Freq
 ----------------------------------------------------------------------

 Structure from the checkpoint file:  "smiles_00060_conf_2.chk"
 ----------------------------------
 opt-freq conformers_unique/conf_ac
 ----------------------------------
 Charge =  0 Multiplicity = 1

 SCF Done:  E(RB3LYP) =  -3233.09086155     A.U. after    1 cycles

                      1                      2                      3
                      A                      A                      A
 Frequencies --     19.0721                53.9399                99.9684
 Red. masses --      5.6533                 3.2451                 2.9275
 Frc consts  --      0.0012                 0.0056                 0.0172
 IR Inten    --      0.1032                 0.0950                 0.0024

                      4                      5                      6
                      A                      A                      A
 Frequencies --    114.9350               126.8831               199.9052
 Red. masses --     13.9668                 4.2992                 6.9772
 Frc consts  --      0.1087                 0.0408                 0.1643
 IR Inten    --      0.1521                 0.3347                 0.9774

                      7                      8                      9
                      A                      A                      A
 Frequencies --    203.6164               244.6586               253.6939
 Red. masses --     12.4998                 5.3792                 4.0311
 Frc consts  --      0.3053                 0.1897                 0.1529
 IR Inten    --      0.0617                 0.0622                 1.6065

                     10                     11                     12
                      A                      A                      A
 Frequencies --    281.0539               334.7464               370.2220
 Red. masses --     15.9008                 9.9090                 5.8891
 Frc consts  --      0.7400                 0.6542                 0.4756
 IR Inten    --      0.1475                 0.3204                 0.8729

                     13                     14                     15
                      A                      A                      A
 Frequencies --    387.8312               427.2756               495.9417
 Red. masses --      4.6931                 5.3428                 3.7045
 Frc consts  --      0.4159                 0.5747                 0.5368
 IR Inten    --      3.6590                 0.3182                 0.8065

                     16                     17                     18
                      A                      A                      A
 Frequencies --    542.6196               580.8801               614.5567
 Red. masses --      5.0434                 8.5286                 3.1519
 Frc consts  --      0.8749                 1.6955                 0.7014
 IR Inten    --      0.8239                 6.8272                 5.7112

                     19                     20                     21
                      A                      A                      A
 Frequencies --    632.8215               683.9308               693.1871
 Red. masses --      4.2474                 6.5140                 4.1223
 Frc consts  --      1.0022                 1.7952                 1.1671
 IR Inten    --      0.4043                 0.4075                 2.3005

                     22                     23                     24
                      A                      A                      A
 Frequencies --    747.8494               790.5000               793.5936
 Red. masses --      1.5223                 4.8527                 1.1916
 Frc consts  --      0.5016                 1.7867                 0.4422
 IR Inten    --      2.9334                59.5760                 1.4290

                     25                     26                     27
                      A                      A                      A
 Frequencies --    848.7871               861.1267               862.3613
 Red. masses --      1.4287                 1.3117                 8.3684
 Frc consts  --      0.6064                 0.5731                 3.6667
 IR Inten    --     43.4961                 1.0800                41.4719

                     28                     29                     30
                      A                      A                      A
 Frequencies --    898.8938               929.2062               957.2986
 Red. masses --      2.3762                 2.8222                 3.6584
 Frc consts  --      1.1312                 1.4357                 1.9753
 IR Inten    --      4.0004                 0.2948                12.0896

                     31                     32                     33
                      A                      A                      A
 Frequencies --    966.4523              1014.3902              1054.3602
 Red. masses --      1.2247                 3.2612                 2.1617
 Frc consts  --      0.6740                 1.9771                 1.4159
 IR Inten    --      4.1146                24.2832                 6.2028

                     34                     35                     36
                      A                      A                      A
 Frequencies --   1108.6538              1152.9760              1193.2697
 Red. masses --      2.6899                 2.2367                 3.3797
 Frc consts  --      1.9480                 1.7519                 2.8354
 IR Inten    --     27.6366                 6.5703               194.3516

                     37                     38                     39
                      A                      A                      A
 Frequencies --   1211.0802              1221.1028              1245.0281
 Red. masses --      1.3234                 1.8629                 1.3521
 Frc consts  --      1.1437                 1.6366                 1.2348
 IR Inten    --      0.1520               131.1702                28.5475

                     40                     41                     42
                      A                      A                      A
 Frequencies --   1251.1544              1268.8641              1278.2069
 Red. masses --      1.1646                 1.3229                 2.0840
 Frc consts  --      1.0741                 1.2549                 2.0061
 IR Inten    --      0.7776                 0.1998                23.7101

                     43                     44                     45
                      A                      A                      A
 Frequencies --   1288.0533              1314.1221              1335.8652
 Red. masses --      1.7911                 1.3680                 6.9056
 Frc consts  --      1.7508                 1.3919                 7.2607
 IR Inten    --     84.1865                 0.6552                 8.0490

                     46                     47                     48
                      A                      A                      A
 Frequencies --   1360.1231              1440.2031              1482.4872
 Red. masses --      4.4145                 1.3912                 5.2271
 Frc consts  --      4.8115                 1.7001                 6.7685
 IR Inten    --     86.2141                 2.0888                25.9824

                     49                     50                     51
                      A                      A                      A
 Frequencies --   1503.7748              1504.2275              1532.8903
 Red. masses --      1.0940                 1.0913                 1.1789
 Frc consts  --      1.4576                 1.4549                 1.6321
 IR Inten    --      1.2442                 3.5714                60.4860

                     52                     53                     54
                      A                      A                      A
 Frequencies --   1547.9988              1634.2654              1674.1653
 Red. masses --      4.2604                 9.0727                 8.5385
 Frc consts  --      6.0151                14.2768                14.1003
 IR Inten    --    379.0570               103.2274                88.5617

                     55                     56                     57
                      A                      A                      A
 Frequencies --   3084.2434              3094.5172              3094.7695
 Red. masses --      1.0590                 1.0611                 1.0803
 Frc consts  --      5.9356                 5.9866                 6.0962
 IR Inten    --     31.7213                52.3413                 8.7992

                     58                     59                     60
                      A                      A                      A
 Frequencies --   3100.4618              3131.9206              3152.3980
 Red. masses --      1.0719                 1.1092                 1.1050
 Frc consts  --      6.0712                 6.4104                 6.4698
 IR Inten    --     16.3604                 3.7125                 2.2673

                     61                     62                     63
                      A                      A                      A
 Frequencies --   3159.9939              3240.8918              3288.2374
 Red. masses --      1.1042                 1.0923                 1.0903
 Frc consts  --      6.4963                 6.7597                 6.9457
 IR Inten    --     64.6629                 0.5250                 0.7512

 - Thermochemistry -
 -------------------
 Temperature   298.150 Kelvin.  Pressure   1.00000 Atm.
 Atom     1 has atomic number  9 and mass  18.99840

 Molecular mass:   261.98048 amu.
 Principal axes and moments of inertia in atomic units:
                           1         2         3
     Eigenvalues --  2847.310425120.558147674.79311
           X            0.99849  -0.05487  -0.00000
           Y            0.05487   0.99849  -0.00000
           Z            0.00000   0.00000   1.00000
 This molecule is an asymmetric top.
 Rotational symmetry number  1.
 Warning -- assumption of classical behavior for rotation
           may cause significant error
 Rotational temperatures (Kelvin)      0.03042     0.01691     0.01129
 Rotational constants (GHZ):           0.63384     0.35245     0.23515
 Zero-point vibrational energy     448495.0 (Joules/Mol)
                                  107.19287 (Kcal/Mol)
 Warning -- explicit consideration of  18 degrees of freedom as
           vibrations may cause significant error
 Vibrational temperatures:     27.44    77.61   143.83   165.37   182.56
          (Kelvin)            287.62   292.96   352.01   365.01   404.37
                              481.63   532.67   558.00   614.75   713.55
                              780.71   835.76   884.21   910.49   984.02
                              997.34  1075.99  1137.35  1141.80  1221.22
                             1238.97  1240.75  1293.31  1336.92  1377.34
                             1390.51  1459.48  1516.99  1595.11  1658.88
                             1716.85  1742.47  1756.89  1791.32  1800.13
                             1825.61  1839.05  1853.22  1890.73  1922.01
                             1956.91  2072.13  2132.97  2163.60  2164.25
                             2205.49  2227.22  2351.34  2408.75  4437.54
                             4452.32  4452.68  4460.87  4506.14  4535.60
                             4546.53  4662.92  4731.04

 Zero-point correction=                           0.170823 (Hartree/Particle)
 Thermal correction to Energy=                    0.183410
 Thermal correction to Enthalpy=                  0.184354
 Thermal correction to Gibbs Free Energy=         0.129398
 Sum of electronic and zero-point Energies=          -3232.920039
 Sum of electronic and thermal Energies=             -3232.907452
 Sum of electronic and thermal Enthalpies=           -3232.906508
 Sum of electronic and thermal Free Energies=        -3232.961463

                     E (Thermal)             CV                S
                      KCal/Mol        Cal/Mol-Kelvin    Cal/Mol-Kelvin
 Total                  115.091             46.955            115.663
 Electronic               0.000              0.000              0.000
 Translational            0.889              2.981             42.589
 Rotational               0.889              2.981             33.081
 Vibrational            113.314             40.993             39.993
 Vibration     1          0.593              1.986              6.729
 Vibration     2          0.596              1.976              4.667
 Vibration     3          0.604              1.949              3.455
 Vibration     4          0.608              1.937              3.184
 Vibration     5          0.611              1.926              2.993
 Vibration     6          0.638              1.840              2.134
 Vibration     7          0.639              1.835              2.100
 Vibration     8          0.660              1.772              1.769
 Vibration     9          0.665              1.757              1.705
 Vibration    10          0.681              1.709              1.527
 Vibration    11          0.716              1.606              1.237
 Vibration    12          0.742              1.533              1.079
 Vibration    13          0.756              1.496              1.008
 Vibration    14          0.789              1.411              0.868
 Vibration    15          0.852              1.259              0.668
 Vibration    16          0.898              1.156              0.560
 Vibration    17          0.938              1.073              0.484
 Vibration    18          0.974              1.001              0.425

 Optimization completed.
    -- Stationary point found.
 Normal termination of Gaussian 16 at Tue Sep 17 09:50:14 2024.

 ----------------------------------------------------------------------
 #p M062X/def2tzvp geom=check guess=read scf(xqc,tight) integral(grid=u
 ltrafine) scrf(SMD, solvent=1,4-Dioxane) polar prop=efg volume
 ----------------------------------------------------------------------

 ---
 spe
 ---
 Structure from the checkpoint file:  "smiles_00060_conf_2.chk"
 Charge =  0 Multiplicity = 1

 SCF Done:  E(RM062X) =  -3235.53920493     A.U. after   12 cycles

  Exact polarizability:     186.355       1.175     176.812       0.001      -0.001     104.658
 Approx polarizability:     192.302       5.338     196.330       0.002      -0.001     123.471

 Normal termination of Gaussian 16 at Tue Sep 17 11:06:10 2024.
 Gaussian 16:  ES64L-G16RevC.02  7-Dec-2021

 ----------------------------------------------------------------------
 #p M062X/def2tzvp geom=check guess=read scf(xqc,tight) integral(grid=u
 ltrafine) scrf(SMD, solvent=1,4-Dioxane) nmr=giao
 ----------------------------------------------------------------------

 ---
 spe
 ---
 Structure from the checkpoint file:  "smiles_00060_conf_2.chk"
 Charge =  0 Multiplicity = 1

                         Standard orientation:
 ---------------------------------------------------------------------
 Center     Atomic      Atomic             Coordinates (Angstroms)
 Number     Number       Type             X           Y           Z
 ---------------------------------------------------------------------
      1          9           0       -2.261146    3.111908   -0.000044
      2          6           0       -1.401232    2.081430   -0.000004
      3          6           0       -0.039761    2.314250    0.000019
      4          6           0        0.852740    1.229285    0.000060
      5          8           0        2.162916    1.591931    0.000072
      6          6           0        3.245085    0.667102    0.000077
      7          6           0        3.411159   -0.411095   -1.098466
      8          6           0        4.013427   -1.335289   -0.000134
      9          6           0        3.411237   -0.411311    1.098414
     10          6           0        0.349011   -0.077338    0.000056
     11          6           0       -1.033398   -0.279427    0.000027
     12         35           0       -1.722424   -2.048761   -0.000000
     13          6           0       -1.921150    0.785454    0.000003
     14          9           0       -3.248615    0.603026   -0.000023
     15          1           0        0.340040    3.328014    0.000009
     16          1           0        4.116838    1.325503    0.000161
     17          1           0        2.461597   -0.783832   -1.483825
     18          1           0        4.045162   -0.143437   -1.946803
     19          1           0        5.105970   -1.319909   -0.000202
     20          1           0        3.681912   -2.375554   -0.000195
     21          1           0        2.461778   -0.784254    1.483799
     22          1           0        4.045290   -0.143768    1.946752
     23          1           0        0.988058   -0.944321    0.000022
 ---------------------------------------------------------------------

 SCF Done:  E(RM062X) =  -3235.53920493     A.U. after    1 cycles

      1  F    Isotropic =   312.1788   Anisotropy =   150.2371

      2  C    Isotropic =    11.7103   Anisotropy =   116.5709

      3  C    Isotropic =    58.3953   Anisotropy =   139.5179

      4  C    Isotropic =    10.8052   Anisotropy =   153.2946

      5  O    Isotropic =   174.4832   Anisotropy =   121.0397

      6  C    Isotropic =   109.6285   Anisotropy =    75.1564

      7  C    Isotropic =   159.3807   Anisotropy =    31.7362

      8  C    Isotropic =   176.6388   Anisotropy =    16.8942

      9  C    Isotropic =   159.3788   Anisotropy =    31.7440

     10  C    Isotropic =    53.6268   Anisotropy =   140.3751

     11  C    Isotropic =    41.1000   Anisotropy =   128.0228

     12  Br   Isotropic =  2152.4979   Anisotropy =  1088.3677

     13  C    Isotropic =    23.2305   Anisotropy =   104.6347

     14  F    Isotropic =   323.9429   Anisotropy =   132.2942

     15  H    Isotropic =    24.5745   Anisotropy =     6.7830

     16  H    Isotropic =    26.9282   Anisotropy =     5.0371

     17  H    Isotropic =    28.6487   Anisotropy =     4.8058

     18  H    Isotropic =    29.7664   Anisotropy =     9.9218

     19  H    Isotropic =    30.2322   Anisotropy =     9.9957

     20  H    Isotropic =    29.9366   Anisotropy =     9.5442

     21  H    Isotropic =    28.6487   Anisotropy =     4.8048

     22  H    Isotropic =    29.7663   Anisotropy =     9.9220

     23  H    Isotropic =    24.0365   Anisotropy =    14.6641

 The electronic state is 1-A.
 Alpha  occ. eigenvalues -- -485.38843 -63.37308 -57.19265 -57.19014 -57.19004
 Alpha  occ. eigenvalues --  -25.27450 -25.27429 -19.66688 -10.65073 -10.64547
 Alpha  occ. eigenvalues --  -10.63032 -10.62110 -10.60475 -10.56558 -10.56066
 Alpha  occ. eigenvalues --  -10.54254 -10.53983 -10.53980  -9.03949  -6.86395
 Alpha  occ. eigenvalues --   -6.85464  -6.85430  -2.89772  -2.89439  -2.89401
 Alpha  occ. eigenvalues --   -2.88535  -2.88534  -1.39631  -1.38254  -1.19995
 Alpha  occ. eigenvalues --   -0.99719  -0.95427  -0.91535  -0.86783  -0.83877
 Alpha  occ. eigenvalues --   -0.77641  -0.76169  -0.73425  -0.70765  -0.66465
 Alpha  occ. eigenvalues --   -0.65209  -0.63074  -0.62283  -0.60074  -0.58160
 Alpha  occ. eigenvalues --   -0.56930  -0.56457  -0.54622  -0.52864  -0.52838
 Alpha  occ. eigenvalues --   -0.51053  -0.49762  -0.47321  -0.46795  -0.46497
 Alpha  occ. eigenvalues --   -0.45146  -0.43647  -0.40910  -0.39425  -0.38578
 Alpha  occ. eigenvalues --   -0.36681  -0.36369  -0.35988  -0.31353  -0.28748
 Alpha virt. eigenvalues --   -0.00091   0.01935   0.02229   0.06741   0.07230
 Alpha virt. eigenvalues --    0.09307   0.10283   0.10325   0.11691   0.13633
 Alpha virt. eigenvalues --    0.14705   0.15612   0.15716   0.16086   0.16447

 Mulliken charges:
               1
     1  F   -0.193802
     2  C    0.255117
     3  C   -0.319765
     4  C    0.345217
     5  O   -0.284562
     6  C   -0.010079
     7  C   -0.307132
     8  C   -0.255366
     9  C   -0.307129
    10  C   -0.279108
    11  C   -0.066788
    12  Br  -0.063485
    13  C    0.185204
    14  F   -0.187830
    15  H    0.186856
    16  H    0.155281
    17  H    0.172718
    18  H    0.147618
    19  H    0.158032
    20  H    0.139776
    21  H    0.172718
    22  H    0.147619
    23  H    0.208892
 Sum of Mulliken charges =  -0.00000

 Dipole moment (field-independent basis, Debye):
    X=              4.6915    Y=             -0.9673    Z=              0.0000  Tot=              4.7902
 Quadrupole moment (field-independent basis, Debye-Ang):
   XX=            -90.6113   YY=            -94.1007   ZZ=            -93.7518
   XY=              1.2826   XZ=              0.0002   YZ=             -0.0001

 Normal termination of Gaussian 16 at Tue Sep 17 11:33:16 2024.
