 Gaussian 16, Revision C.02,

 ----------------------------------------------------------------------
 #p B3LYP/6-31G(d,p) EmpiricalDispersion=GD3BJ opt freq scf(xqc,tight)
 integral(grid=ultrafine)
 ----------------------------------------------------------------------

 ----------------------------------
 opt-freq conformers_unique/conf_aa
 ----------------------------------
 Symbolic Z-matrix:
 Charge =  0 Multiplicity = 1

 SCF Done:  E(RB3LYP) =  -2990.32439678     A.U. after   15 cycles
 SCF Done:  E(RB3LYP) =  -2990.32624649     A.U. after   12 cycles
 SCF Done:  E(RB3LYP) =  -2990.32631266     A.U. after    9 cycles
 SCF Done:  E(RB3LYP) =  -2990.32631668     A.U. after    9 cycles
 Optimization completed.
    -- Stationary point found.
 Normal termination of Gaussian 16 at Tue Sep 17 09:49:37 2024.

 ----------------------------------------------------------------------
 #P Geom=AllCheck Guess=TCheck SCRF=Check GenChk RB3LYP/6-31G(d,p) Freq
 ----------------------------------------------------------------------

 Structure from the checkpoint file:  "smiles_00006_conf_0.chk"
 ----------------------------------
 opt-freq conformers_unique/conf_aa
 ----------------------------------
 Charge =  0 Multiplicity = 1

 SCF Done:  E(RB3LYP) =  -2990.32631668     A.U. after    1 cycles

                      1                      2                      3
                      A                      A                      A
 Frequencies --     57.3777                91.1477               169.7091
 Red. masses --      1.2003                 3.6001                 3.2114
 Frc consts  --      0.0023                 0.0176                 0.0545
 IR Inten    --      0.3078                 1.6887                 2.7771

                      4                      5                      6
                      A                      A                      A
 Frequencies --    173.7430               247.4486               249.2384
 Red. masses --      5.3593                 4.0214                 6.7455
 Frc consts  --      0.0953                 0.1451                 0.2469
 IR Inten    --      0.6987                 2.2867                 2.8453

                      7                      8                      9
                      A                      A                      A
 Frequencies --    319.0789               324.4476               446.0322
 Red. masses --      4.9276                 6.6414                 4.3811
 Frc consts  --      0.2956                 0.4119                 0.5135
 IR Inten    --      0.6726                 0.4853                 0.0084

                     10                     11                     12
                      A                      A                      A
 Frequencies --    500.6733               588.4398               604.1093
 Red. masses --      3.7250                 3.5107                 6.1570
 Frc consts  --      0.5502                 0.7162                 1.3239
 IR Inten    --      5.7991                 0.2949                 9.0367

                     13                     14                     15
                      A                      A                      A
 Frequencies --    618.5693               620.9585               732.4338
 Red. masses --      6.6852                 4.1528                 1.3246
 Frc consts  --      1.5071                 0.9434                 0.4187
 IR Inten    --      5.6979                 5.7409                41.7638

                     16                     17                     18
                      A                      A                      A
 Frequencies --    756.6589               797.6715               802.8867
 Red. masses --      6.6678                 5.8436                 5.4475
 Frc consts  --      2.2492                 2.1907                 2.0690
 IR Inten    --     38.4322                14.9173                 0.0595

                     19                     20                     21
                      A                      A                      A
 Frequencies --    859.4375               917.5749               927.5153
 Red. masses --      1.2906                 1.4457                 6.3861
 Frc consts  --      0.5616                 0.7172                 3.2369
 IR Inten    --      0.2902                17.3903                25.6492

                     22                     23                     24
                      A                      A                      A
 Frequencies --    936.7299              1035.6835              1100.7104
 Red. masses --      1.3932                 1.8496                 2.1055
 Frc consts  --      0.7203                 1.1689                 1.5030
 IR Inten    --      1.9451                 0.6064                14.6357

                     25                     26                     27
                      A                      A                      A
 Frequencies --   1113.0496              1155.0320              1157.6175
 Red. masses --      1.1929                 1.2883                 3.1536
 Frc consts  --      0.8707                 1.0126                 2.4899
 IR Inten    --      9.7951                 0.1330                23.2835

                     28                     29                     30
                      A                      A                      A
 Frequencies --   1227.5547              1268.8346              1312.4574
 Red. masses --      2.6371                 1.8064                 2.0280
 Frc consts  --      2.3413                 1.7134                 2.0582
 IR Inten    --      8.5511                24.5131                39.0550

                     31                     32                     33
                      A                      A                      A
 Frequencies --   1354.3925              1388.5602              1416.8836
 Red. masses --      4.9642                 2.5742                 3.6540
 Frc consts  --      5.3652                 2.9242                 4.3221
 IR Inten    --     21.3665                17.5967                 4.4947

                     34                     35                     36
                      A                      A                      A
 Frequencies --   1446.1682              1466.6741              1509.2489
 Red. masses --      2.4708                 1.8046                 1.0424
 Frc consts  --      3.0445                 2.2872                 1.3990
 IR Inten    --     77.6762                 1.2978                 7.0329

                     37                     38                     39
                      A                      A                      A
 Frequencies --   1513.6089              1530.2861              1562.4435
 Red. masses --      1.6301                 1.8073                 4.0648
 Frc consts  --      2.2003                 2.4936                 5.8465
 IR Inten    --     59.5736                23.8930                52.1910

                     40                     41                     42
                      A                      A                      A
 Frequencies --   1608.9879              1645.5740              3049.9588
 Red. masses --      6.5902                 7.0678                 1.0351
 Frc consts  --     10.0520                11.2763                 5.6732
 IR Inten    --      9.0804                 7.0239                72.0447

                     43                     44                     45
                      A                      A                      A
 Frequencies --   3112.4327              3168.8486              3196.3223
 Red. masses --      1.1061                 1.1010                 1.0914
 Frc consts  --      6.3131                 6.5141                 6.5695
 IR Inten    --     23.0354                 0.4435                 5.8644

                     46                     47                     48
                      A                      A                      A
 Frequencies --   3216.1088              3256.0239              3274.6162
 Red. masses --      1.0925                 1.0902                 1.1036
 Frc consts  --      6.6576                 6.8095                 6.9725
 IR Inten    --      1.3999                 0.3378                 3.7042

 - Thermochemistry -
 -------------------
 Temperature   298.150 Kelvin.  Pressure   1.00000 Atm.
 Atom     1 has atomic number  6 and mass  12.00000

 Molecular mass:   209.97926 amu.
 Principal axes and moments of inertia in atomic units:
                           1         2         3
     Eigenvalues --   680.539614759.027435428.11922
           X            0.99998   0.00579   0.00003
           Y           -0.00579   0.99998   0.00002
           Z           -0.00003  -0.00002   1.00000
 This molecule is an asymmetric top.
 Rotational symmetry number  1.
 Warning -- assumption of classical behavior for rotation
           may cause significant error
 Rotational temperatures (Kelvin)      0.12727     0.01820     0.01596
 Rotational constants (GHZ):           2.65193     0.37922     0.33248
 Zero-point vibrational energy     357862.6 (Joules/Mol)
                                   85.53122 (Kcal/Mol)
 Warning -- explicit consideration of  13 degrees of freedom as
           vibrations may cause significant error
 Vibrational temperatures:     82.55   131.14   244.17   249.98   356.02
          (Kelvin)            358.60   459.08   466.81   641.74   720.36
                              846.63   869.18   889.98   893.42  1053.81
                             1088.66  1147.67  1155.17  1236.54  1320.19
                             1334.49  1347.75  1490.12  1583.68  1601.43
                             1661.83  1665.55  1766.18  1825.57  1888.33
                             1948.67  1997.83  2038.58  2080.71  2110.22
                             2171.47  2177.75  2201.74  2248.01  2314.97
                             2367.61  4388.21  4478.10  4559.27  4598.79
                             4627.26  4684.69  4711.44

 Zero-point correction=                           0.136303 (Hartree/Particle)
 Thermal correction to Energy=                    0.145573
 Thermal correction to Enthalpy=                  0.146518
 Thermal correction to Gibbs Free Energy=         0.100197
 Sum of electronic and zero-point Energies=          -2990.190014
 Sum of electronic and thermal Energies=             -2990.180743
 Sum of electronic and thermal Enthalpies=           -2990.179799
 Sum of electronic and thermal Free Energies=        -2990.226119

                     E (Thermal)             CV                S
                      KCal/Mol        Cal/Mol-Kelvin    Cal/Mol-Kelvin
 Total                   91.349             34.590             97.489
 Electronic               0.000              0.000              0.000
 Translational            0.889              2.981             41.929
 Rotational               0.889              2.981             31.242
 Vibrational             89.571             28.628             24.318
 Vibration     1          0.596              1.975              4.545
 Vibration     2          0.602              1.955              3.635
 Vibration     3          0.625              1.880              2.439
 Vibration     4          0.627              1.875              2.395
 Vibration     5          0.661              1.767              1.749
 Vibration     6          0.662              1.764              1.736
 Vibration     7          0.705              1.637              1.315
 Vibration     8          0.709              1.627              1.288
 Vibration     9          0.805              1.370              0.808
 Vibration    10          0.856              1.249              0.656
 Vibration    11          0.946              1.056              0.470
 Vibration    12          0.963              1.023              0.443
 Vibration    13          0.978              0.993              0.419

 Optimization completed.
    -- Stationary point found.
 Normal termination of Gaussian 16 at Tue Sep 17 09:50:48 2024.

 ----------------------------------------------------------------------
 #p M062X/def2tzvp geom=check guess=read scf(xqc,tight) integral(grid=u
 ltrafine) scrf(SMD, solvent=1,4-Dioxane) polar prop=efg volume
 ----------------------------------------------------------------------

 ---
 spe
 ---
 Structure from the checkpoint file:  "smiles_00006_conf_0.chk"
 Charge =  0 Multiplicity = 1

 SCF Done:  E(RM062X) =  -2992.75608176     A.U. after   12 cycles

  Exact polarizability:     225.720      -8.384     143.032      -0.004      -0.001      79.942
 Approx polarizability:     226.598      -8.584     169.617      -0.003      -0.000      99.356

 Normal termination of Gaussian 16 at Tue Sep 17 10:28:01 2024.
 Gaussian 16:  ES64L-G16RevC.02  7-Dec-2021

 ----------------------------------------------------------------------
 #p M062X/def2tzvp geom=check guess=read scf(xqc,tight) integral(grid=u
 ltrafine) scrf(SMD, solvent=1,4-Dioxane) nmr=giao
 ----------------------------------------------------------------------

 ---
 spe
 ---
 Structure from the checkpoint file:  "smiles_00006_conf_0.chk"
 Charge =  0 Multiplicity = 1

                         Standard orientation:
 ---------------------------------------------------------------------
 Center     Atomic      Atomic             Coordinates (Angstroms)
 Number     Number       Type             X           Y           Z
 ---------------------------------------------------------------------
      1          6           0       -3.864321   -1.358276    0.000250
      2          7           0       -2.955939   -0.227501    0.000030
      3          6           0       -3.298029    1.112801    0.000051
      4          6           0       -2.171021    1.897794    0.000040
      5          6           0       -1.050889    1.005763    0.000004
      6          6           0        0.343962    1.124373   -0.000030
      7          6           0        1.072956   -0.057384   -0.000040
      8         35           0        2.983703   -0.001607   -0.000081
      9          6           0        0.438880   -1.314043   -0.000018
     10          7           0       -0.887806   -1.455629    0.000008
     11          6           0       -1.581237   -0.318746    0.000012
     12          1           0       -4.498268   -1.348014    0.892064
     13          1           0       -3.259484   -2.265181    0.000270
     14          1           0       -4.498469   -1.348196   -0.891423
     15          1           0       -4.339431    1.401439    0.000059
     16          1           0       -2.148502    2.977351    0.000036
     17          1           0        0.842132    2.087210   -0.000043
     18          1           0        1.036829   -2.220144   -0.000017
 ---------------------------------------------------------------------

 SCF Done:  E(RM062X) =  -2992.75608176     A.U. after    1 cycles

      1  C    Isotropic =   155.7302   Anisotropy =    49.9903

      2  N    Isotropic =    88.8642   Anisotropy =   127.5457

      3  C    Isotropic =    35.6020   Anisotropy =   139.8210

      4  C    Isotropic =    70.6109   Anisotropy =   140.0046

      5  C    Isotropic =    45.5945   Anisotropy =   183.9057

      6  C    Isotropic =    32.0489   Anisotropy =   183.5912

      7  C    Isotropic =    38.8270   Anisotropy =   122.5782

      8  Br   Isotropic =  2172.3519   Anisotropy =  1209.5852

      9  C    Isotropic =    19.2763   Anisotropy =   162.4067

     10  N    Isotropic =   -80.2457   Anisotropy =   535.7455

     11  C    Isotropic =    19.1480   Anisotropy =   159.7592

     12  H    Isotropic =    28.3249   Anisotropy =    10.2952

     13  H    Isotropic =    26.7852   Anisotropy =     7.7003

     14  H    Isotropic =    28.3247   Anisotropy =    10.2946

     15  H    Isotropic =    23.8741   Anisotropy =     5.3722

     16  H    Isotropic =    24.7426   Anisotropy =     4.1787

     17  H    Isotropic =    23.1410   Anisotropy =    11.5371

     18  H    Isotropic =    22.7626   Anisotropy =    11.3918

 The electronic state is 1-A.
 Alpha  occ. eigenvalues -- -485.37425 -63.35902 -57.17848 -57.17608 -57.17606
 Alpha  occ. eigenvalues --  -14.80288 -14.76049 -10.60744 -10.59868 -10.58496
 Alpha  occ. eigenvalues --  -10.58235 -10.57462 -10.56776 -10.55578 -10.53855
 Alpha  occ. eigenvalues --   -9.02545  -6.84957  -6.84066  -6.84063  -2.88333
 Alpha  occ. eigenvalues --   -2.88007  -2.87998  -2.87168  -2.87168  -1.11919
 Alpha  occ. eigenvalues --   -1.04591  -0.94117  -0.91088  -0.85230  -0.82746
 Alpha  occ. eigenvalues --   -0.78295  -0.73257  -0.68347  -0.66289  -0.60708
 Alpha  occ. eigenvalues --   -0.57617  -0.55066  -0.54711  -0.51044  -0.49898
 Alpha  occ. eigenvalues --   -0.48842  -0.48250  -0.47693  -0.44839  -0.43441
 Alpha  occ. eigenvalues --   -0.43109  -0.39197  -0.35716  -0.35166  -0.33818
 Alpha  occ. eigenvalues --   -0.28035  -0.27540
 Alpha virt. eigenvalues --   -0.01425   0.03326   0.03890   0.07244   0.07856
 Alpha virt. eigenvalues --    0.10359   0.10517   0.12285   0.12822   0.13848
 Alpha virt. eigenvalues --    0.15055   0.15725   0.16347   0.17829   0.17854

 Mulliken charges:
               1
     1  C   -0.358286
     2  N   -0.092401
     3  C   -0.059355
     4  C   -0.310762
     5  C    0.074464
     6  C   -0.216332
     7  C    0.061804
     8  Br  -0.117350
     9  C   -0.124170
    10  N   -0.314944
    11  C    0.232061
    12  H    0.165455
    13  H    0.183414
    14  H    0.165454
    15  H    0.190134
    16  H    0.163280
    17  H    0.184357
    18  H    0.173179
 Sum of Mulliken charges =  -0.00000

 Dipole moment (field-independent basis, Debye):
    X=             -4.0020    Y=              0.9301    Z=              0.0003  Tot=              4.1087
 Quadrupole moment (field-independent basis, Debye-Ang):
   XX=            -61.9117   YY=            -72.5078   ZZ=            -80.0540
   XY=              0.3733   XZ=             -0.0011   YZ=             -0.0004

 Normal termination of Gaussian 16 at Tue Sep 17 10:41:02 2024.
