 Gaussian 16, Revision C.02,

 ----------------------------------------------------------------------
 #p B3LYP/6-31G(d,p) EmpiricalDispersion=GD3BJ opt freq scf(xqc,tight)
 integral(grid=ultrafine)
 ----------------------------------------------------------------------

 ----------------------------------
 opt-freq conformers_unique/conf_ai
 ----------------------------------
 Symbolic Z-matrix:
 Charge =  0 Multiplicity = 1

 SCF Done:  E(RB3LYP) =  -3157.29424270     A.U. after   14 cycles
 SCF Done:  E(RB3LYP) =  -3157.29650270     A.U. after   11 cycles
 SCF Done:  E(RB3LYP) =  -3157.29664309     A.U. after   10 cycles
 SCF Done:  E(RB3LYP) =  -3157.29666511     A.U. after    9 cycles
 SCF Done:  E(RB3LYP) =  -3157.29668906     A.U. after   10 cycles
 SCF Done:  E(RB3LYP) =  -3157.29673510     A.U. after    9 cycles
 SCF Done:  E(RB3LYP) =  -3157.21851676     A.U. after   14 cycles
 SCF Done:  E(RB3LYP) =  -3157.29742755     A.U. after   11 cycles
 SCF Done:  E(RB3LYP) =  -3157.23997418     A.U. after   14 cycles
 SCF Done:  E(RB3LYP) =  -3157.29652987     A.U. after   12 cycles
 SCF Done:  E(RB3LYP) =  -3157.30090070     A.U. after   10 cycles
 SCF Done:  E(RB3LYP) =  -3157.30090973     A.U. after    9 cycles
 SCF Done:  E(RB3LYP) =  -3157.30091152     A.U. after    7 cycles
 SCF Done:  E(RB3LYP) =  -3157.30091179     A.U. after    7 cycles
 SCF Done:  E(RB3LYP) =  -3157.30091192     A.U. after    7 cycles
 SCF Done:  E(RB3LYP) =  -3157.30091196     A.U. after    6 cycles
 SCF Done:  E(RB3LYP) =  -3157.30091198     A.U. after    6 cycles
 SCF Done:  E(RB3LYP) =  -3157.30091199     A.U. after    6 cycles
 Optimization completed.
    -- Stationary point found.
 Normal termination of Gaussian 16 at Tue Sep 17 10:03:16 2024.

 ----------------------------------------------------------------------
 #P Geom=AllCheck Guess=TCheck SCRF=Check GenChk RB3LYP/6-31G(d,p) Freq
 ----------------------------------------------------------------------

 Structure from the checkpoint file:  "smiles_00105_conf_8.chk"
 ----------------------------------
 opt-freq conformers_unique/conf_ai
 ----------------------------------
 Charge =  0 Multiplicity = 1

 SCF Done:  E(RB3LYP) =  -3157.30091199     A.U. after    1 cycles

 The electronic state is 1-A.
 Alpha  occ. eigenvalues -- -482.90738 -61.86813 -56.38791 -56.38416 -56.38406
 Alpha  occ. eigenvalues --  -10.23419 -10.20033 -10.19998 -10.19484 -10.19232
 Alpha  occ. eigenvalues --  -10.19227 -10.19132 -10.18391 -10.18370 -10.17635
 Alpha  occ. eigenvalues --  -10.17624 -10.17521 -10.17492 -10.17063 -10.17056
 Alpha  occ. eigenvalues --   -8.57726  -6.53023  -6.51827  -6.51780  -2.64596
 Alpha  occ. eigenvalues --   -2.64261  -2.64226  -2.63271  -2.63271  -0.87479
 Alpha  occ. eigenvalues --   -0.81905  -0.81356  -0.77928  -0.77198  -0.72437
 Alpha  occ. eigenvalues --   -0.70527  -0.68386  -0.68266  -0.68084  -0.63100
 Alpha  occ. eigenvalues --   -0.60654  -0.59687  -0.55042  -0.53922  -0.49342
 Alpha  occ. eigenvalues --   -0.48384  -0.45396  -0.45065  -0.43799  -0.43494
 Alpha  occ. eigenvalues --   -0.43260  -0.42664  -0.41567  -0.40679  -0.39602
 Alpha  occ. eigenvalues --   -0.38833  -0.38590  -0.38211  -0.37149  -0.36749
 Alpha  occ. eigenvalues --   -0.36671  -0.35721  -0.34539  -0.34175  -0.34132
 Alpha  occ. eigenvalues --   -0.33786  -0.32860  -0.32600  -0.31827  -0.31092
 Alpha  occ. eigenvalues --   -0.29459  -0.27436  -0.23961  -0.22681
 Alpha virt. eigenvalues --   -0.00414  -0.00042   0.01603   0.08607   0.09887
 Alpha virt. eigenvalues --    0.10102   0.11898   0.12315   0.13566   0.14446
 Alpha virt. eigenvalues --    0.14785   0.14978   0.15122   0.15617   0.15885

 Mulliken charges:
               1
     1  C   -0.303320
     2  C   -0.129141
     3  C   -0.303370
     4  C    0.154520
     5  C   -0.169639
     6  C    0.133709
     7  C   -0.122286
     8  C   -0.319117
     9  C   -0.302296
    10  C   -0.056507
    11  Br  -0.141980
    12  C    0.139153
    13  C   -0.123118
    14  C   -0.318588
    15  C   -0.302355
    16  C   -0.187557
    17  H    0.107824
    18  H    0.099973
    19  H    0.102832
    20  H    0.087822
    21  H    0.100083
    22  H    0.107795
    23  H    0.102073
    24  H    0.077647
    25  H    0.114279
    26  H    0.102129
    27  H    0.108227
    28  H    0.101875
    29  H    0.100881
    30  H    0.118026
    31  H    0.099327
    32  H    0.114301
    33  H    0.102798
    34  H    0.107996
    35  H    0.101757
    36  H    0.099295
    37  H    0.117945
    38  H    0.100972
    39  H    0.076033
 Sum of Mulliken charges =  -0.00000

 Dipole moment (field-independent basis, Debye):
    X=              1.4665    Y=             -0.3383    Z=              0.0900  Tot=              1.5077
 Quadrupole moment (field-independent basis, Debye-Ang):
   XX=           -109.8444   YY=           -106.5964   ZZ=           -114.4730
   XY=              0.5411   XZ=              0.1790   YZ=             -0.0881

  Exact polarizability:     212.933       0.170     196.912      -0.612       0.072     122.489
 Approx polarizability:     314.731      -5.992     285.480       5.897      -1.637     182.992

                      1                      2                      3
                      A                      A                      A
 Frequencies --     29.4252                43.1735                81.1935
 Red. masses --      2.8325                 3.6516                 2.9525
 Frc consts  --      0.0014                 0.0040                 0.0115
 IR Inten    --      0.0026                 0.0568                 0.4268

                      4                      5                      6
                      A                      A                      A
 Frequencies --     88.9138               101.5655               133.1425
 Red. masses --      2.5777                 3.4104                 2.9866
 Frc consts  --      0.0120                 0.0207                 0.0312
 IR Inten    --      0.0041                 0.0249                 0.0975

                      7                      8                      9
                      A                      A                      A
 Frequencies --    150.8768               159.1315               177.8891
 Red. masses --      3.4170                 3.1444                 5.8924
 Frc consts  --      0.0458                 0.0469                 0.1099
 IR Inten    --      0.0099                 0.3581                 0.2758

                     10                     11                     12
                      A                      A                      A
 Frequencies --    193.7753               229.9544               237.5611
 Red. masses --      3.2728                 3.8162                 1.0887
 Frc consts  --      0.0724                 0.1189                 0.0362
 IR Inten    --      0.0630                 0.7693                 0.0084

                     13                     14                     15
                      A                      A                      A
 Frequencies --    252.3014               257.1502               259.2442
 Red. masses --      1.1656                 1.1423                 1.0548
 Frc consts  --      0.0437                 0.0445                 0.0418
 IR Inten    --      0.0929                 0.1251                 0.0647

                     16                     17                     18
                      A                      A                      A
 Frequencies --    278.8021               286.8171               292.8771
 Red. masses --      1.6395                 1.0489                 1.3123
 Frc consts  --      0.0751                 0.0508                 0.0663
 IR Inten    --      0.0382                 0.1783                 0.1498

                     19                     20                     21
                      A                      A                      A
 Frequencies --    311.4875               333.8921               349.1299
 Red. masses --      3.1379                 2.9814                 2.7532
 Frc consts  --      0.1794                 0.1958                 0.1977
 IR Inten    --      0.0132                 1.4691                 0.8065

                     22                     23                     24
                      A                      A                      A
 Frequencies --    378.3050               386.8723               405.1711
 Red. masses --      3.5592                 2.5012                 4.1419
 Frc consts  --      0.3001                 0.2206                 0.4006
 IR Inten    --      0.5632                 0.1196                 1.8744

                     25                     26                     27
                      A                      A                      A
 Frequencies --    440.4829               480.4420               525.0140
 Red. masses --      2.4854                 2.8220                 4.3890
 Frc consts  --      0.2841                 0.3838                 0.7128
 IR Inten    --      0.0160                 0.1882                 2.1106

                     28                     29                     30
                      A                      A                      A
 Frequencies --    571.0755               608.8674               627.1269
 Red. masses --      3.0598                 3.3514                 3.1082
 Frc consts  --      0.5879                 0.7320                 0.7202
 IR Inten    --      0.3638                 6.7206                 3.9211

                     31                     32                     33
                      A                      A                      A
 Frequencies --    646.2724               664.4594               771.3364
 Red. masses --      3.7408                 3.7218                 3.4419
 Frc consts  --      0.9205                 0.9681                 1.2065
 IR Inten    --      0.3856                 2.4657                 2.2337

                     34                     35                     36
                      A                      A                      A
 Frequencies --    830.3161               851.1446               896.0550
 Red. masses --      3.6504                 3.1470                 2.4408
 Frc consts  --      1.4828                 1.3432                 1.1546
 IR Inten    --      0.4952                 0.6788                 0.1080

                     37                     38                     39
                      A                      A                      A
 Frequencies --    906.3414               910.9339               937.3799
 Red. masses --      1.6090                 1.3794                 1.1800
 Frc consts  --      0.7787                 0.6744                 0.6109
 IR Inten    --     11.4883                 0.9764                 0.7957

                     40                     41                     42
                      A                      A                      A
 Frequencies --    940.9642               942.4483               956.4864
 Red. masses --      1.2910                 1.1871                 2.0905
 Frc consts  --      0.6735                 0.6212                 1.1268
 IR Inten    --      0.0956                 1.9443                 4.1929

                     43                     44                     45
                      A                      A                      A
 Frequencies --    960.8261               969.7444               977.8660
 Red. masses --      2.1361                 1.4961                 1.4766
 Frc consts  --      1.1619                 0.8289                 0.8319
 IR Inten    --      7.6389                 0.0903                 0.0620

                     46                     47                     48
                      A                      A                      A
 Frequencies --    981.0311              1034.5014              1085.9474
 Red. masses --      1.5410                 7.5946                 1.5316
 Frc consts  --      0.8738                 4.7887                 1.0642
 IR Inten    --      4.6380                47.5601                12.2532

                     49                     50                     51
                      A                      A                      A
 Frequencies --   1103.0150              1130.0074              1130.8592
 Red. masses --      1.6153                 2.2739                 1.6991
 Frc consts  --      1.1579                 1.7107                 1.2802
 IR Inten    --      2.8629                 1.2761                 9.1054

                     52                     53                     54
                      A                      A                      A
 Frequencies --   1133.0838              1142.3199              1174.3363
 Red. masses --      2.2481                 2.1834                 1.7802
 Frc consts  --      1.7005                 1.6786                 1.4465
 IR Inten    --      0.8265                 7.5285                 2.1277

                     55                     56                     57
                      A                      A                      A
 Frequencies --   1189.5702              1208.1775              1225.7977
 Red. masses --      1.9132                 1.9209                 1.6042
 Frc consts  --      1.5951                 1.6521                 1.4202
 IR Inten    --      2.5120                11.0370                 1.0898

                     58                     59                     60
                      A                      A                      A
 Frequencies --   1283.8587              1302.7426              1316.5940
 Red. masses --      1.5201                 2.3846                 4.1183
 Frc consts  --      1.4763                 2.3844                 4.2060
 IR Inten    --      9.4416                 1.2022                 1.6141

                     61                     62                     63
                      A                      A                      A
 Frequencies --   1342.2318              1344.0651              1352.7251
 Red. masses --      1.4033                 1.3878                 1.3267
 Frc consts  --      1.4896                 1.4772                 1.4303
 IR Inten    --      5.3763                 1.3165                 2.4624

                     64                     65                     66
                      A                      A                      A
 Frequencies --   1360.5728              1380.0144              1394.6366
 Red. masses --      1.5859                 1.9171                 1.5714
 Frc consts  --      1.7297                 2.1512                 1.8008
 IR Inten    --     14.4535                 4.2876                 6.1305

                     67                     68                     69
                      A                      A                      A
 Frequencies --   1409.9832              1410.7070              1412.5758
 Red. masses --      1.2474                 1.2447                 1.2339
 Frc consts  --      1.4612                 1.4595                 1.4506
 IR Inten    --      6.9165                 0.9868                 3.6658

                     70                     71                     72
                      A                      A                      A
 Frequencies --   1430.9544              1432.2907              1433.5802
 Red. masses --      1.2457                 1.2375                 1.2318
 Frc consts  --      1.5028                 1.4957                 1.4915
 IR Inten    --      2.2091                 6.1539                 0.4653

                     73                     74                     75
                      A                      A                      A
 Frequencies --   1472.1972              1474.9893              1501.2584
 Red. masses --      2.5181                 2.4919                 1.0439
 Frc consts  --      3.2156                 3.1942                 1.3862
 IR Inten    --     19.9583                21.0846                 0.1025

                     76                     77                     78
                      A                      A                      A
 Frequencies --   1503.1878              1504.2086              1505.1518
 Red. masses --      1.0439                 1.0457                 1.0479
 Frc consts  --      1.3898                 1.3940                 1.3987
 IR Inten    --      3.3512                 3.2450                 0.8890

                     79                     80                     81
                      A                      A                      A
 Frequencies --   1507.7480              1508.6743              1516.9120
 Red. masses --      1.0617                 1.0939                 1.0490
 Frc consts  --      1.4220                 1.4670                 1.4221
 IR Inten    --      0.2390                 3.6014                 7.2526

                     82                     83                     84
                      A                      A                      A
 Frequencies --   1523.1643              1523.4545              1524.1432
 Red. masses --      1.0481                 1.0517                 1.0702
 Frc consts  --      1.4327                 1.4382                 1.4648
 IR Inten    --     11.7936                 2.0847                 4.1686

                     85                     86                     87
                      A                      A                      A
 Frequencies --   1528.1371              1529.4250              1629.0951
 Red. masses --      1.0570                 1.0604                 7.4911
 Frc consts  --      1.4543                 1.4614                11.7136
 IR Inten    --      2.5024                 5.0152                 7.6867

                     88                     89                     90
                      A                      A                      A
 Frequencies --   1646.8833              3034.0819              3040.1761
 Red. masses --      5.1628                 1.0843                 1.0347
 Frc consts  --      8.2502                 5.8812                 5.6347
 IR Inten    --      4.1852                15.2613                22.0115

                     91                     92                     93
                      A                      A                      A
 Frequencies --   3041.4442              3041.7044              3044.0810
 Red. masses --      1.0356                 1.0356                 1.0356
 Frc consts  --      5.6441                 5.6450                 5.6537
 IR Inten    --     13.5588                35.5044                27.9124

                     94                     95                     96
                      A                      A                      A
 Frequencies --   3044.9501              3045.3686              3059.0579
 Red. masses --      1.0383                 1.0383                 1.0811
 Frc consts  --      5.6720                 5.6735                 5.9606
 IR Inten    --     49.9003                10.3156                 5.4811

                     97                     98                     99
                      A                      A                      A
 Frequencies --   3059.5070              3108.8560              3108.9162
 Red. masses --      1.0813                 1.1026                 1.1023
 Frc consts  --      5.9633                 6.2784                 6.2774
 IR Inten    --      6.4503                 0.0462                 2.1204

                    100                    101                    102
                      A                      A                      A
 Frequencies --   3109.2382              3114.8749              3115.6895
 Red. masses --      1.1024                 1.1017                 1.1014
 Frc consts  --      6.2792                 6.2981                 6.2997
 IR Inten    --      2.2837               105.5889                19.4127

                    103                    104                    105
                      A                      A                      A
 Frequencies --   3116.1706              3121.1794              3122.6304
 Red. masses --      1.1013                 1.1029                 1.1032
 Frc consts  --      6.3009                 6.3302                 6.3376
 IR Inten    --     81.0338                19.5915                32.7556

                    106                    107                    108
                      A                      A                      A
 Frequencies --   3122.7726              3122.9006              3137.8300
 Red. masses --      1.1030                 1.1026                 1.1010
 Frc consts  --      6.3374                 6.3357                 6.3868
 IR Inten    --     46.4575                14.1938                27.3235

                    109                    110                    111
                      A                      A                      A
 Frequencies --   3137.9660              3199.1132              3206.2805
 Red. masses --      1.1010                 1.0887                 1.0883
 Frc consts  --      6.3875                 6.5650                 6.5920
 IR Inten    --      8.3665                10.0804                 9.6235

 - Thermochemistry -
 -------------------
 Temperature   298.150 Kelvin.  Pressure   1.00000 Atm.
 Atom     1 has atomic number  6 and mass  12.00000

 Molecular mass:   282.09831 amu.
 Principal axes and moments of inertia in atomic units:
                           1         2         3
     Eigenvalues --  3833.660975638.820148503.11008
           X            0.99827   0.05785  -0.01011
           Y           -0.05782   0.99832   0.00304
           Z            0.01027  -0.00245   0.99994
 This molecule is an asymmetric top.
 Rotational symmetry number  1.
 Warning -- assumption of classical behavior for rotation
           may cause significant error
 Rotational temperatures (Kelvin)      0.02259     0.01536     0.01019
 Rotational constants (GHZ):           0.47076     0.32006     0.21224
 Zero-point vibrational energy     906971.7 (Joules/Mol)
                                  216.77145 (Kcal/Mol)
 Warning -- explicit consideration of  29 degrees of freedom as
           vibrations may cause significant error
 Vibrational temperatures:     42.34    62.12   116.82   127.93   146.13
          (Kelvin)            191.56   217.08   228.95   255.94   278.80
                              330.85   341.80   363.01   369.98   372.99
                              401.13   412.67   421.38   448.16   480.40
                              502.32   544.30   556.62   582.95   633.76
                              691.25   755.38   821.65   876.02   902.30
                              929.84   956.01  1109.78  1194.64  1224.61
                             1289.22  1304.02  1310.63  1348.68  1353.84
                             1355.97  1376.17  1382.41  1395.25  1406.93
                             1411.49  1488.42  1562.44  1586.99  1625.83
                             1627.05  1630.25  1643.54  1689.61  1711.53
                             1738.30  1763.65  1847.19  1874.36  1894.29
                             1931.17  1933.81  1946.27  1957.56  1985.53
                             2006.57  2028.65  2029.69  2032.38  2058.82
                             2060.75  2062.60  2118.16  2122.18  2159.98
                             2162.75  2164.22  2165.58  2169.31  2170.65
                             2182.50  2191.49  2191.91  2192.90  2198.65
                             2200.50  2343.90  2369.50  4365.37  4374.14
                             4375.96  4376.33  4379.75  4381.00  4381.61
                             4401.30  4401.95  4472.95  4473.04  4473.50
                             4481.61  4482.78  4483.47  4490.68  4492.77
                             4492.97  4493.16  4514.64  4514.83  4602.81
                             4613.12

 Zero-point correction=                           0.345447 (Hartree/Particle)
 Thermal correction to Energy=                    0.363871
 Thermal correction to Enthalpy=                  0.364815
 Thermal correction to Gibbs Free Energy=         0.299166
 Sum of electronic and zero-point Energies=          -3156.955465
 Sum of electronic and thermal Energies=             -3156.937041
 Sum of electronic and thermal Enthalpies=           -3156.936097
 Sum of electronic and thermal Free Energies=        -3157.001746

                     E (Thermal)             CV                S
                      KCal/Mol        Cal/Mol-Kelvin    Cal/Mol-Kelvin
 Total                  228.332             69.622            138.171
 Electronic               0.000              0.000              0.000
 Translational            0.889              2.981             42.809
 Rotational               0.889              2.981             33.574
 Vibrational            226.555             63.660             61.787
 Vibration     1          0.593              1.984              5.868
 Vibration     2          0.595              1.980              5.108
 Vibration     3          0.600              1.962              3.862
 Vibration     4          0.602              1.957              3.684
 Vibration     5          0.604              1.948              3.424
 Vibration     6          0.613              1.920              2.900
 Vibration     7          0.618              1.902              2.661
 Vibration     8          0.621              1.892              2.560
 Vibration     9          0.628              1.870              2.350
 Vibration    10          0.635              1.849              2.191
 Vibration    11          0.652              1.795              1.879
 Vibration    12          0.656              1.783              1.821
 Vibration    13          0.664              1.759              1.714
 Vibration    14          0.667              1.751              1.681
 Vibration    15          0.668              1.747              1.667
 Vibration    16          0.679              1.713              1.541
 Vibration    17          0.684              1.698              1.493
 Vibration    18          0.688              1.687              1.457
 Vibration    19          0.700              1.652              1.354
 Vibration    20          0.715              1.608              1.241
 Vibration    21          0.726              1.577              1.170
 Vibration    22          0.749              1.516              1.046
 Vibration    23          0.755              1.498              1.012
 Vibration    24          0.770              1.459              0.944
 Vibration    25          0.800              1.382              0.825
 Vibration    26          0.837              1.293              0.709
 Vibration    27          0.880              1.195              0.598
 Vibration    28          0.927              1.094              0.502
 Vibration    29          0.968              1.013              0.435

 Optimization completed.
    -- Stationary point found.
 Normal termination of Gaussian 16 at Tue Sep 17 10:09:20 2024.
 Gaussian 16:  ES64L-G16RevC.02  7-Dec-2021

 ----------------------------------------------------------------------
 #p M062X/def2tzvp geom=check guess=read scf(xqc,tight) integral(grid=u
 ltrafine) scrf(SMD, solvent=1,4-Dioxane) polar prop=efg volume
 ----------------------------------------------------------------------

 ---
 spe
 ---
 Structure from the checkpoint file:  "smiles_00105_conf_8.chk"
 Charge =  0 Multiplicity = 1

                         Standard orientation:
 ---------------------------------------------------------------------
 Center     Atomic      Atomic             Coordinates (Angstroms)
 Number     Number       Type             X           Y           Z
 ---------------------------------------------------------------------
      1          6           0        4.234662   -0.409857   -1.163193
      2          6           0        3.468105   -0.897580    0.077187
      3          6           0        4.103048   -0.355780    1.368351
      4          6           0        1.992288   -0.548536   -0.007417
      5          6           0        1.570079    0.782208   -0.052933
      6          6           0        0.220157    1.134573   -0.131626
      7          6           0       -0.212661    2.593307   -0.136498
      8          6           0        0.851301    3.555239   -0.676537
      9          6           0       -0.661266    3.012417    1.276526
     10          6           0       -0.709807    0.083058   -0.160502
     11         35           0       -2.588164    0.523599   -0.246275
     12          6           0       -0.344341   -1.269554   -0.124385
     13          6           0       -1.378679   -2.385399   -0.120751
     14          6           0       -0.853254   -3.722259   -0.655229
     15          6           0       -1.963374   -2.554408    1.294570
     16          6           0        1.024853   -1.551286   -0.046197
     17          1           0        3.798667   -0.816128   -2.080516
     18          1           0        5.284875   -0.716221   -1.115472
     19          1           0        4.208866    0.682513   -1.236811
     20          1           0        3.540380   -1.992326    0.104428
     21          1           0        5.151467   -0.662752    1.443336
     22          1           0        3.572745   -0.722373    2.252117
     23          1           0        4.073839    0.738725    1.391800
     24          1           0        2.312236    1.571849   -0.029071
     25          1           0       -1.085578    2.663607   -0.794522
     26          1           0        1.708103    3.639881    0.000372
     27          1           0        1.221545    3.239583   -1.656546
     28          1           0        0.423387    4.556836   -0.780133
     29          1           0        0.177884    2.948805    1.977494
     30          1           0       -1.462095    2.363467    1.637947
     31          1           0       -1.028968    4.043841    1.274623
     32          1           0       -2.193934   -2.064609   -0.778308
     33          1           0       -0.120007   -4.173906    0.021288
     34          1           0       -0.385485   -3.609032   -1.637811
     35          1           0       -1.681321   -4.430854   -0.751587
     36          1           0       -2.750179   -3.315973    1.298496
     37          1           0       -2.392838   -1.615646    1.651519
     38          1           0       -1.181678   -2.865534    1.995775
     39          1           0        1.347188   -2.586569   -0.016964
 ---------------------------------------------------------------------

 SCF Done:  E(RM062X) =  -3159.60442073     A.U. after   12 cycles
