 Gaussian 16, Revision C.02,

 ----------------------------------------------------------------------
 #p B3LYP/6-31G(d,p) EmpiricalDispersion=GD3BJ opt freq scf(xqc,tight)
 integral(grid=ultrafine)
 ----------------------------------------------------------------------

 ----------------------------------
 opt-freq conformers_unique/conf_ab
 ----------------------------------
 Symbolic Z-matrix:
 Charge =  0 Multiplicity = 1

 SCF Done:  E(RB3LYP) =  -3140.41755910     A.U. after   15 cycles
 SCF Done:  E(RB3LYP) =  -3140.41858152     A.U. after   11 cycles
 SCF Done:  E(RB3LYP) =  -3140.41874456     A.U. after   11 cycles
 SCF Done:  E(RB3LYP) =  -3140.41878010     A.U. after   10 cycles
 SCF Done:  E(RB3LYP) =  -3140.41879300     A.U. after    9 cycles
 SCF Done:  E(RB3LYP) =  -3140.41879133     A.U. after    8 cycles
 SCF Done:  E(RB3LYP) =  -3140.41901110     A.U. after   12 cycles
 SCF Done:  E(RB3LYP) =  -3140.11402158     A.U. after   16 cycles
 SCF Done:  E(RB3LYP) =  -3140.34681683     A.U. after   14 cycles
 SCF Done:  E(RB3LYP) =  -3140.41901665     A.U. after    8 cycles
 SCF Done:  E(RB3LYP) =  -3140.40133854     A.U. after   14 cycles
 SCF Done:  E(RB3LYP) =  -3140.42347118     A.U. after   13 cycles
 SCF Done:  E(RB3LYP) =  -3140.42395815     A.U. after   11 cycles
 SCF Done:  E(RB3LYP) =  -3140.42397175     A.U. after   12 cycles
 SCF Done:  E(RB3LYP) =  -3140.42402956     A.U. after   11 cycles
 SCF Done:  E(RB3LYP) =  -3140.42422396     A.U. after   11 cycles
 SCF Done:  E(RB3LYP) =  -3140.42422648     A.U. after    8 cycles
 Optimization completed.
    -- Stationary point found.
 Normal termination of Gaussian 16 at Tue Sep 17 09:49:36 2024.

 ----------------------------------------------------------------------
 #P Geom=AllCheck Guess=TCheck SCRF=Check GenChk RB3LYP/6-31G(d,p) Freq
 ----------------------------------------------------------------------

 Structure from the checkpoint file:  "smiles_00117_conf_1.chk"
 ----------------------------------
 opt-freq conformers_unique/conf_ab
 ----------------------------------
 Charge =  0 Multiplicity = 1

 SCF Done:  E(RB3LYP) =  -3140.42422648     A.U. after    1 cycles

                      1                      2                      3
                      A                      A                      A
 Frequencies --     66.1955               112.4871               143.0239
 Red. masses --     16.8789                 4.8947                25.0252
 Frc consts  --      0.0436                 0.0365                 0.3016
 IR Inten    --      0.0009                 0.0108                 0.3173

                      4                      5                      6
                      A                      A                      A
 Frequencies --    176.8427               268.2960               269.5082
 Red. masses --      7.0447                 7.6717                16.4123
 Frc consts  --      0.1298                 0.3254                 0.7024
 IR Inten    --      0.2318                 0.0994                 1.1534

                      7                      8                      9
                      A                      A                      A
 Frequencies --    342.5463               391.0513               427.2432
 Red. masses --      5.8903                 9.4866                 9.3623
 Frc consts  --      0.4072                 0.8547                 1.0069
 IR Inten    --      0.0725                 6.7631                 2.5038

                     10                     11                     12
                      A                      A                      A
 Frequencies --    459.5961               508.3954               577.4796
 Red. masses --      3.9654                 6.5032                12.3045
 Frc consts  --      0.4935                 0.9903                 2.4176
 IR Inten    --      1.3837                 2.5166                 0.4182

                     13                     14                     15
                      A                      A                      A
 Frequencies --    602.3625               654.8092               692.4159
 Red. masses --      5.2835                 7.4294                 8.4270
 Frc consts  --      1.1295                 1.8769                 2.3804
 IR Inten    --      2.5293                13.9479                13.6074

                     16                     17                     18
                      A                      A                      A
 Frequencies --    752.4037               782.2344               784.5264
 Red. masses --      3.3854                 1.3488                 9.5110
 Frc consts  --      1.1292                 0.4863                 3.4490
 IR Inten    --      5.7658                43.2261                 3.0417

                     19                     20                     21
                      A                      A                      A
 Frequencies --    899.4297               975.8220              1009.4009
 Red. masses --      1.3726                 1.3615                 1.3160
 Frc consts  --      0.6542                 0.7638                 0.7900
 IR Inten    --      0.2382                 3.4262                 0.0131

                     22                     23                     24
                      A                      A                      A
 Frequencies --   1037.2121              1067.4363              1117.8015
 Red. masses --      8.0769                 3.2197                 2.7994
 Frc consts  --      5.1195                 2.1614                 2.0608
 IR Inten    --     43.0081                20.8716                58.5183

                     25                     26                     27
                      A                      A                      A
 Frequencies --   1141.9338              1193.8513              1198.7806
 Red. masses --      1.9649                 1.1137                12.7228
 Frc consts  --      1.5096                 0.9353                10.7724
 IR Inten    --     29.9541                 3.1385               236.8340

                     28                     29                     30
                      A                      A                      A
 Frequencies --   1215.7239              1292.3980              1336.8472
 Red. masses --      3.6958                 1.6955                 3.5117
 Frc consts  --      3.2183                 1.6686                 3.6977
 IR Inten    --    141.1755                47.8757               224.6172

                     31                     32                     33
                      A                      A                      A
 Frequencies --   1351.6975              1482.7440              1517.5759
 Red. masses --      8.4472                 2.2588                 2.6363
 Frc consts  --      9.0933                 2.9259                 3.5772
 IR Inten    --     29.9304                43.2160                15.5511

                     34                     35                     36
                      A                      A                      A
 Frequencies --   1631.5136              1653.3792              3196.8740
 Red. masses --      6.0603                 6.2210                 1.0870
 Frc consts  --      9.5044                10.0197                 6.5455
 IR Inten    --     15.0800                25.2949                 2.9097

                     37                     38                     39
                      A                      A                      A
 Frequencies --   3212.4247              3225.9447              3235.8248
 Red. masses --      1.0925                 1.0946                 1.0935
 Frc consts  --      6.6426                 6.7114                 6.7460
 IR Inten    --      9.5883                 2.7728                 2.6012

 - Thermochemistry -
 -------------------
 Temperature   298.150 Kelvin.  Pressure   1.00000 Atm.
 Atom     1 has atomic number  9 and mass  18.99840

 Molecular mass:   223.94485 amu.
 Principal axes and moments of inertia in atomic units:
                           1         2         3
     Eigenvalues --  1930.650112181.490883791.25139
           X            0.93333  -0.35902  -0.00001
           Y            0.35902   0.93333  -0.00001
           Z            0.00002   0.00000   1.00000
 This molecule is an asymmetric top.
 Rotational symmetry number  1.
 Warning -- assumption of classical behavior for rotation
           may cause significant error
 Rotational temperatures (Kelvin)      0.04486     0.03970     0.02285
 Rotational constants (GHZ):           0.93478     0.82730     0.47603
 Zero-point vibrational energy     251251.9 (Joules/Mol)
                                   60.05064 (Kcal/Mol)
 Warning -- explicit consideration of  13 degrees of freedom as
           vibrations may cause significant error
 Vibrational temperatures:     95.24   161.84   205.78   254.44   386.02
          (Kelvin)            387.76   492.85   562.64   614.71   661.26
                              731.47   830.86   866.67   942.12   996.23
                             1082.54  1125.46  1128.76  1294.08  1403.99
                             1452.30  1492.32  1535.80  1608.27  1642.99
                             1717.69  1724.78  1749.16  1859.47  1923.42
                             1944.79  2133.34  2183.45  2347.38  2378.84
                             4599.59  4621.96  4641.41  4655.63

 Zero-point correction=                           0.095697 (Hartree/Particle)
 Thermal correction to Energy=                    0.104831
 Thermal correction to Enthalpy=                  0.105775
 Thermal correction to Gibbs Free Energy=         0.059833
 Sum of electronic and zero-point Energies=          -3140.328530
 Sum of electronic and thermal Energies=             -3140.319396
 Sum of electronic and thermal Enthalpies=           -3140.318452
 Sum of electronic and thermal Free Energies=        -3140.364393

                     E (Thermal)             CV                S
                      KCal/Mol        Cal/Mol-Kelvin    Cal/Mol-Kelvin
 Total                   65.782             33.821             96.692
 Electronic               0.000              0.000              0.000
 Translational            0.889              2.981             42.121
 Rotational               0.889              2.981             31.146
 Vibrational             64.005             27.859             23.424
 Vibration     1          0.598              1.970              4.263
 Vibration     2          0.607              1.939              3.226
 Vibration     3          0.616              1.910              2.763
 Vibration     4          0.628              1.871              2.361
 Vibration     5          0.673              1.731              1.607
 Vibration     6          0.674              1.729              1.599
 Vibration     7          0.722              1.590              1.200
 Vibration     8          0.759              1.489              0.996
 Vibration     9          0.789              1.411              0.868
 Vibration    10          0.818              1.340              0.767
 Vibration    11          0.864              1.231              0.637
 Vibration    12          0.934              1.080              0.490
 Vibration    13          0.961              1.027              0.446

 Optimization completed.
    -- Stationary point found.
 Normal termination of Gaussian 16 at Tue Sep 17 09:50:34 2024.

 ----------------------------------------------------------------------
 #p M062X/def2tzvp geom=check guess=read scf(xqc,tight) integral(grid=u
 ltrafine) scrf(SMD, solvent=1,4-Dioxane) polar prop=efg volume
 ----------------------------------------------------------------------

 ---
 spe
 ---
 Structure from the checkpoint file:  "smiles_00117_conf_1.chk"
 Charge =  0 Multiplicity = 1

 SCF Done:  E(RM062X) =  -3142.91437057     A.U. after   12 cycles

  Exact polarizability:     149.219      -5.978     123.035      -0.007      -0.009      67.938
 Approx polarizability:     161.882      -3.360     136.812      -0.009      -0.012      84.761

 Normal termination of Gaussian 16 at Tue Sep 17 10:23:14 2024.
 Gaussian 16:  ES64L-G16RevC.02  7-Dec-2021

 ----------------------------------------------------------------------
 #p M062X/def2tzvp geom=check guess=read scf(xqc,tight) integral(grid=u
 ltrafine) scrf(SMD, solvent=1,4-Dioxane) nmr=giao
 ----------------------------------------------------------------------

 ---
 spe
 ---
 Structure from the checkpoint file:  "smiles_00117_conf_1.chk"
 Charge =  0 Multiplicity = 1

                         Standard orientation:
 ---------------------------------------------------------------------
 Center     Atomic      Atomic             Coordinates (Angstroms)
 Number     Number       Type             X           Y           Z
 ---------------------------------------------------------------------
      1          9           0       -1.377664   -2.554216   -0.000143
      2          6           0       -0.361916   -1.662354    0.000000
      3          9           0        0.393588   -1.922042   -1.087650
      4          9           0        0.393227   -1.922509    1.087155
      5          6           0       -0.874626   -0.242818    0.000056
      6          6           0       -2.252359   -0.011111    0.000498
      7          6           0       -2.758482    1.286524    0.000153
      8          6           0       -1.882559    2.370069   -0.000221
      9          6           0       -0.504859    2.157000   -0.000416
     10          6           0       -0.006462    0.856633   -0.000315
     11         35           0        1.885656    0.631495    0.000199
     12          1           0       -2.923232   -0.861011    0.000528
     13          1           0       -3.831135    1.447209    0.000750
     14          1           0       -2.264975    3.385737   -0.000315
     15          1           0        0.186614    2.990976   -0.000725
 ---------------------------------------------------------------------

 SCF Done:  E(RM062X) =  -3142.91437057     A.U. after    1 cycles

      1  F    Isotropic =   252.7506   Anisotropy =   131.4796

      2  C    Isotropic =    50.9767   Anisotropy =    15.9381

      3  F    Isotropic =   237.4031   Anisotropy =   141.2792

      4  F    Isotropic =   237.5776   Anisotropy =   140.6888

      5  C    Isotropic =    31.2881   Anisotropy =   175.0449

      6  C    Isotropic =    35.0882   Anisotropy =   216.7948

      7  C    Isotropic =    36.2934   Anisotropy =   221.3498

      8  C    Isotropic =    28.3827   Anisotropy =   219.3303

      9  C    Isotropic =    27.7903   Anisotropy =   186.9123

     10  C    Isotropic =    25.4634   Anisotropy =   158.8069

     11  Br   Isotropic =  2065.1827   Anisotropy =  1167.1262

     12  H    Isotropic =    23.1992   Anisotropy =    10.1316

     13  H    Isotropic =    23.6177   Anisotropy =     5.6686

     14  H    Isotropic =    23.4250   Anisotropy =     6.0898

     15  H    Isotropic =    23.3708   Anisotropy =    11.1691

 The electronic state is 1-A.
 Alpha  occ. eigenvalues -- -485.38432 -63.36906 -57.18859 -57.18613 -57.18601
 Alpha  occ. eigenvalues --  -25.28533 -25.28158 -25.28146 -10.80703 -10.62390
 Alpha  occ. eigenvalues --  -10.58945 -10.57181 -10.56937 -10.56792 -10.56353
 Alpha  occ. eigenvalues --   -9.03548  -6.85982  -6.85073  -6.85033  -2.89359
 Alpha  occ. eigenvalues --   -2.89035  -2.88993  -2.88145  -2.88145  -1.46522
 Alpha  occ. eigenvalues --   -1.37634  -1.37415  -1.00207  -0.91377  -0.89927
 Alpha  occ. eigenvalues --   -0.83790  -0.80780  -0.73186  -0.71596  -0.69342
 Alpha  occ. eigenvalues --   -0.68510  -0.65781  -0.58658  -0.57865  -0.57864
 Alpha  occ. eigenvalues --   -0.55471  -0.54031  -0.53858  -0.52650  -0.51854
 Alpha  occ. eigenvalues --   -0.49738  -0.48728  -0.47576  -0.43627  -0.42348
 Alpha  occ. eigenvalues --   -0.38980  -0.35789  -0.33848  -0.31175
 Alpha virt. eigenvalues --   -0.01480  -0.00367   0.02866   0.09096   0.10770
 Alpha virt. eigenvalues --    0.12186   0.13257   0.14214   0.14798   0.16637
 Alpha virt. eigenvalues --    0.18200   0.19623   0.19744   0.21331   0.22832

 Mulliken charges:
               1
     1  F   -0.185031
     2  C    0.527957
     3  F   -0.176971
     4  F   -0.176702
     5  C   -0.008025
     6  C   -0.148852
     7  C   -0.153186
     8  C   -0.144793
     9  C   -0.149997
    10  C   -0.028773
    11  Br  -0.071489
    12  H    0.187662
    13  H    0.172529
    14  H    0.173693
    15  H    0.181979
 Sum of Mulliken charges =  -0.00000

 Dipole moment (field-independent basis, Debye):
    X=             -2.8360    Y=              3.1517    Z=              0.0022  Tot=              4.2399
 Quadrupole moment (field-independent basis, Debye-Ang):
   XX=            -65.3311   YY=            -70.1786   ZZ=            -77.5518
   XY=             -3.0760   XZ=             -0.0013   YZ=             -0.0053

 Normal termination of Gaussian 16 at Tue Sep 17 10:35:01 2024.
