 Gaussian 16, Revision C.02,

 ----------------------------------------------------------------------
 #p B3LYP/6-31G(d,p) EmpiricalDispersion=GD3BJ opt freq scf(xqc,tight)
 integral(grid=ultrafine)
 ----------------------------------------------------------------------

 ----------------------------------
 opt-freq conformers_unique/conf_ad
 ----------------------------------
 Symbolic Z-matrix:
 Charge =  0 Multiplicity = 1

 SCF Done:  E(RB3LYP) =  -3150.41970052     A.U. after   13 cycles
 SCF Done:  E(RB3LYP) =  -3150.42101953     A.U. after   11 cycles
 SCF Done:  E(RB3LYP) =  -3150.42112566     A.U. after   11 cycles
 SCF Done:  E(RB3LYP) =  -3150.42123191     A.U. after   10 cycles
 SCF Done:  E(RB3LYP) =  -3150.42129268     A.U. after   10 cycles
 SCF Done:  E(RB3LYP) =  -3150.42136455     A.U. after   11 cycles
 SCF Done:  E(RB3LYP) =  -3150.42140999     A.U. after   11 cycles
 SCF Done:  E(RB3LYP) =  -3150.42148820     A.U. after   10 cycles
 SCF Done:  E(RB3LYP) =  -3150.42172854     A.U. after   14 cycles
 SCF Done:  E(RB3LYP) =  -3150.42167077     A.U. after   11 cycles
 SCF Done:  E(RB3LYP) =  -3150.42304616     A.U. after   13 cycles
 SCF Done:  E(RB3LYP) =  -3150.42308426     A.U. after   10 cycles
 SCF Done:  E(RB3LYP) =  -3150.42309750     A.U. after   10 cycles
 SCF Done:  E(RB3LYP) =  -3150.42312912     A.U. after   11 cycles
 SCF Done:  E(RB3LYP) =  -3150.42312997     A.U. after   10 cycles
 SCF Done:  E(RB3LYP) =  -3150.42313219     A.U. after    9 cycles
 SCF Done:  E(RB3LYP) =  -3150.42313233     A.U. after    7 cycles
 Optimization completed.
    -- Stationary point found.
 Normal termination of Gaussian 16 at Tue Sep 17 09:58:20 2024.

 ----------------------------------------------------------------------
 #P Geom=AllCheck Guess=TCheck SCRF=Check GenChk RB3LYP/6-31G(d,p) Freq
 ----------------------------------------------------------------------

 Structure from the checkpoint file:  "smiles_00034_conf_3.chk"
 ----------------------------------
 opt-freq conformers_unique/conf_ad
 ----------------------------------
 Charge =  0 Multiplicity = 1

 SCF Done:  E(RB3LYP) =  -3150.42313233     A.U. after    1 cycles

                      1                      2                      3
                      A                      A                      A
 Frequencies --     18.4783                27.1578                43.5022
 Red. masses --      3.4392                 2.6651                 3.2977
 Frc consts  --      0.0007                 0.0012                 0.0037
 IR Inten    --      0.0680                 0.0041                 0.7301

                      4                      5                      6
                      A                      A                      A
 Frequencies --     75.3768                98.5610               102.4048
 Red. masses --      3.1172                 2.4799                 3.4191
 Frc consts  --      0.0104                 0.0142                 0.0211
 IR Inten    --      0.4490                 0.4168                 0.5467

                      7                      8                      9
                      A                      A                      A
 Frequencies --    161.5396               183.9457               204.7441
 Red. masses --      4.6040                 3.5681                 1.9080
 Frc consts  --      0.0708                 0.0711                 0.0471
 IR Inten    --      2.0314                 2.4701                 0.2608

                     10                     11                     12
                      A                      A                      A
 Frequencies --    229.3164               242.3346               264.4411
 Red. masses --      3.1860                 1.5766                 1.5976
 Frc consts  --      0.0987                 0.0546                 0.0658
 IR Inten    --      1.0716                 0.3579                 0.1997

                     13                     14                     15
                      A                      A                      A
 Frequencies --    299.9569               316.6443               336.4321
 Red. masses --      6.5051                 3.0250                 4.7642
 Frc consts  --      0.3448                 0.1787                 0.3177
 IR Inten    --      0.9564                 9.2659                 5.1468

                     16                     17                     18
                      A                      A                      A
 Frequencies --    365.9728               428.6572               449.0835
 Red. masses --      3.6355                 3.3263                 3.1491
 Frc consts  --      0.2869                 0.3601                 0.3742
 IR Inten    --      2.7467                 3.2118                 1.0153

                     19                     20                     21
                      A                      A                      A
 Frequencies --    499.1883               532.1438               635.7359
 Red. masses --      4.3035                 4.7386                 5.4807
 Frc consts  --      0.6318                 0.7906                 1.3051
 IR Inten    --      6.1193                 2.5861                 4.2463

                     22                     23                     24
                      A                      A                      A
 Frequencies --    679.7959               700.0845               750.8865
 Red. masses --      6.3302                 3.1586                 3.3981
 Frc consts  --      1.7235                 0.9121                 1.1288
 IR Inten    --     19.8068                 7.0385                23.1778

                     25                     26                     27
                      A                      A                      A
 Frequencies --    802.5982               815.4627               823.2766
 Red. masses --      1.4778                 1.1751                 1.0942
 Frc consts  --      0.5609                 0.4604                 0.4369
 IR Inten    --     30.2068                 6.5297                 0.1190

                     28                     29                     30
                      A                      A                      A
 Frequencies --    851.6764               890.0122               914.2057
 Red. masses --      2.4909                 2.6915                 1.7062
 Frc consts  --      1.0645                 1.2561                 0.8402
 IR Inten    --      6.9802                10.9695                 9.4744

                     31                     32                     33
                      A                      A                      A
 Frequencies --    937.0429               962.1055               993.6564
 Red. masses --      1.3451                 2.2273                 1.3103
 Frc consts  --      0.6959                 1.2147                 0.7622
 IR Inten    --      2.5164                 6.7635                 1.3450

                     34                     35                     36
                      A                      A                      A
 Frequencies --   1017.6659              1030.1314              1035.2138
 Red. masses --      5.4508                 3.1595                 3.1273
 Frc consts  --      3.3260                 1.9754                 1.9746
 IR Inten    --      0.9589                22.2007                29.4775

                     37                     38                     39
                      A                      A                      A
 Frequencies --   1085.6325              1097.1226              1106.9618
 Red. masses --      4.8090                 2.1801                 2.7831
 Frc consts  --      3.3394                 1.5461                 2.0093
 IR Inten    --    274.9010                18.3951                75.4188

                     40                     41                     42
                      A                      A                      A
 Frequencies --   1124.0850              1133.9526              1148.8017
 Red. masses --      1.5934                 2.7222                 2.4089
 Frc consts  --      1.1863                 2.0623                 1.8731
 IR Inten    --     24.8897                88.9211                55.8801

                     43                     44                     45
                      A                      A                      A
 Frequencies --   1192.6938              1194.2582              1210.2923
 Red. masses --      1.4408                 1.1882                 1.8763
 Frc consts  --      1.2075                 0.9985                 1.6193
 IR Inten    --      2.7749                11.2869                37.3119

                     46                     47                     48
                      A                      A                      A
 Frequencies --   1226.8456              1300.0133              1306.6756
 Red. masses --      2.4675                 1.1681                 1.3269
 Frc consts  --      2.1882                 1.1631                 1.3348
 IR Inten    --     81.5915                 4.8109                11.9469

                     49                     50                     51
                      A                      A                      A
 Frequencies --   1327.8293              1354.3257              1382.5830
 Red. masses --      1.1631                 4.4206                 1.4361
 Frc consts  --      1.2082                 4.7772                 1.6174
 IR Inten    --     11.8427                 0.7320               109.7129

                     52                     53                     54
                      A                      A                      A
 Frequencies --   1392.8086              1406.0967              1415.4908
 Red. masses --      1.2052                 1.2390                 1.2759
 Frc consts  --      1.3775                 1.4433                 1.5062
 IR Inten    --      3.0306                 0.8058                 1.1131

                     55                     56                     57
                      A                      A                      A
 Frequencies --   1429.2813              1438.4505              1463.8611
 Red. masses --      1.3051                 1.3772                 2.6992
 Frc consts  --      1.5709                 1.6789                 3.4079
 IR Inten    --     14.9654                19.4144                29.1477

                     58                     59                     60
                      A                      A                      A
 Frequencies --   1499.0071              1503.8486              1510.9598
 Red. masses --      1.0403                 1.0430                 1.0530
 Frc consts  --      1.3773                 1.3898                 1.4164
 IR Inten    --      4.3623                 4.8204                 0.5688

                     61                     62                     63
                      A                      A                      A
 Frequencies --   1515.8522              1516.5610              1527.9037
 Red. masses --      2.3796                 1.0524                 1.0859
 Frc consts  --      3.2215                 1.4261                 1.4936
 IR Inten    --     15.5238                 1.5269                 2.5233

                     64                     65                     66
                      A                      A                      A
 Frequencies --   1545.6025              1628.7973              1654.1770
 Red. masses --      1.0896                 6.3479                 6.1788
 Frc consts  --      1.5335                 9.9223                 9.9613
 IR Inten    --      0.1953                30.1937                 8.9555

                     67                     68                     69
                      A                      A                      A
 Frequencies --   3016.8183              3032.6315              3049.9205
 Red. masses --      1.0824                 1.0582                 1.0372
 Frc consts  --      5.8044                 5.7341                 5.6845
 IR Inten    --     38.3756                25.4762                21.5111

                     70                     71                     72
                      A                      A                      A
 Frequencies --   3051.7193              3053.0218              3073.7396
 Red. masses --      1.0599                 1.0355                 1.1052
 Frc consts  --      5.8158                 5.6867                 6.1524
 IR Inten    --     25.8897                25.1190                26.2892

                     73                     74                     75
                      A                      A                      A
 Frequencies --   3099.4363              3121.6122              3128.6588
 Red. masses --      1.1045                 1.1014                 1.1023
 Frc consts  --      6.2517                 6.3235                 6.3571
 IR Inten    --      6.1935                43.5951                25.6480

                     76                     77                     78
                      A                      A                      A
 Frequencies --   3132.0792              3134.3431              3192.0499
 Red. masses --      1.1039                 1.1044                 1.0873
 Frc consts  --      6.3801                 6.3922                 6.5276
 IR Inten    --     35.8538                30.8486                 7.2100

                     79                     80                     81
                      A                      A                      A
 Frequencies --   3211.7314              3223.7269              3249.8024
 Red. masses --      1.0927                 1.0949                 1.0912
 Frc consts  --      6.6410                 6.7041                 6.7902
 IR Inten    --      6.1502                 5.0093                 1.0412

 - Thermochemistry -
 -------------------
 Temperature   298.150 Kelvin.  Pressure   1.00000 Atm.
 Atom     1 has atomic number  6 and mass  12.00000

 Molecular mass:   258.02554 amu.
 Principal axes and moments of inertia in atomic units:
                           1         2         3
     Eigenvalues --  2455.081597145.445288608.05599
           X            0.99955  -0.02443  -0.01716
           Y            0.02388   0.99922  -0.03140
           Z            0.01791   0.03098   0.99936
 This molecule is an asymmetric top.
 Rotational symmetry number  1.
 Warning -- assumption of classical behavior for rotation
           may cause significant error
 Rotational temperatures (Kelvin)      0.03528     0.01212     0.01006
 Rotational constants (GHZ):           0.73510     0.25257     0.20966
 Zero-point vibrational energy     634807.3 (Joules/Mol)
                                  151.72259 (Kcal/Mol)
 Warning -- explicit consideration of  20 degrees of freedom as
           vibrations may cause significant error
 Vibrational temperatures:     26.59    39.07    62.59   108.45   141.81
          (Kelvin)            147.34   232.42   264.66   294.58   329.94
                              348.67   380.47   431.57   455.58   484.05
                              526.55   616.74   646.13   718.22   765.64
                              914.68   978.07  1007.27  1080.36  1154.76
                             1173.27  1184.51  1225.37  1280.53  1315.34
                             1348.20  1384.26  1429.65  1464.19  1482.13
                             1489.44  1561.98  1578.51  1592.67  1617.31
                             1631.50  1652.87  1716.02  1718.27  1741.34
                             1765.16  1870.43  1880.01  1910.45  1948.57
                             1989.23  2003.94  2023.06  2036.58  2056.42
                             2069.61  2106.17  2156.74  2163.70  2173.93
                             2180.97  2181.99  2198.31  2223.78  2343.48
                             2379.99  4340.53  4363.28  4388.16  4390.74
                             4392.62  4422.43  4459.40  4491.30  4501.44
                             4506.36  4509.62  4592.65  4620.97  4638.22
                             4675.74

 Zero-point correction=                           0.241785 (Hartree/Particle)
 Thermal correction to Energy=                    0.256685
 Thermal correction to Enthalpy=                  0.257629
 Thermal correction to Gibbs Free Energy=         0.196512
 Sum of electronic and zero-point Energies=          -3150.181347
 Sum of electronic and thermal Energies=             -3150.166448
 Sum of electronic and thermal Enthalpies=           -3150.165504
 Sum of electronic and thermal Free Energies=        -3150.226620

                     E (Thermal)             CV                S
                      KCal/Mol        Cal/Mol-Kelvin    Cal/Mol-Kelvin
 Total                  161.072             53.713            128.631
 Electronic               0.000              0.000              0.000
 Translational            0.889              2.981             42.543
 Rotational               0.889              2.981             33.379
 Vibrational            159.295             47.751             52.708
 Vibration     1          0.593              1.986              6.791
 Vibration     2          0.593              1.984              6.027
 Vibration     3          0.595              1.980              5.093
 Vibration     4          0.599              1.965              4.008
 Vibration     5          0.604              1.950              3.483
 Vibration     6          0.604              1.947              3.408
 Vibration     7          0.622              1.890              2.532
 Vibration     8          0.631              1.862              2.288
 Vibration     9          0.640              1.833              2.090
 Vibration    10          0.652              1.796              1.884
 Vibration    11          0.659              1.775              1.786
 Vibration    12          0.671              1.738              1.632
 Vibration    13          0.692              1.674              1.417
 Vibration    14          0.704              1.642              1.327
 Vibration    15          0.717              1.603              1.229
 Vibration    16          0.739              1.542              1.097
 Vibration    17          0.790              1.408              0.863
 Vibration    18          0.808              1.363              0.799
 Vibration    19          0.855              1.252              0.660
 Vibration    20          0.887              1.179              0.582

 Optimization completed.
    -- Stationary point found.
 Normal termination of Gaussian 16 at Tue Sep 17 10:01:34 2024.

 ----------------------------------------------------------------------
 #p M062X/def2tzvp geom=check guess=read scf(xqc,tight) integral(grid=u
 ltrafine) scrf(SMD, solvent=1,4-Dioxane) polar prop=efg volume
 ----------------------------------------------------------------------

 ---
 spe
 ---
 Structure from the checkpoint file:  "smiles_00034_conf_3.chk"
 Charge =  0 Multiplicity = 1

 SCF Done:  E(RM062X) =  -3152.81222922     A.U. after   11 cycles

 The electronic state is 1-A.
 Alpha  occ. eigenvalues -- -485.37281 -63.35760 -57.17704 -57.17470 -57.17464
 Alpha  occ. eigenvalues --  -19.63463 -19.63202 -10.64378 -10.60256 -10.58204
 Alpha  occ. eigenvalues --  -10.57642 -10.55872 -10.55499 -10.55302 -10.55241
 Alpha  occ. eigenvalues --  -10.54839 -10.52454 -10.52181  -9.02403  -6.84804
 Alpha  occ. eigenvalues --   -6.83939  -6.83918  -2.88180  -2.87868  -2.87843
 Alpha  occ. eigenvalues --   -2.87037  -2.87036  -1.19601  -1.13028  -0.98057
 Alpha  occ. eigenvalues --   -0.90331  -0.87772  -0.84943  -0.84297  -0.81632
 Alpha  occ. eigenvalues --   -0.76612  -0.71371  -0.70108  -0.67709  -0.65269
 Alpha  occ. eigenvalues --   -0.60356  -0.58551  -0.58162  -0.55907  -0.53587
 Alpha  occ. eigenvalues --   -0.52900  -0.51638  -0.49447  -0.48621  -0.47926
 Alpha  occ. eigenvalues --   -0.47217  -0.46050  -0.44753  -0.43799  -0.43661
 Alpha  occ. eigenvalues --   -0.43035  -0.41676  -0.40865  -0.40113  -0.37699
 Alpha  occ. eigenvalues --   -0.36878  -0.35178  -0.34924  -0.34323  -0.31629
 Alpha  occ. eigenvalues --   -0.29659
 Alpha virt. eigenvalues --    0.00537   0.01079   0.03870   0.07131   0.08287
 Alpha virt. eigenvalues --    0.09656   0.10501   0.11268   0.11755   0.12610
 Alpha virt. eigenvalues --    0.12828   0.13886   0.14255   0.14916   0.15457

 Mulliken charges:
               1
     1  C   -0.422112
     2  C   -0.127014
     3  O   -0.327952
     4  C    0.204596
     5  O   -0.338841
     6  C   -0.153589
     7  C   -0.419783
     8  C    0.036282
     9  C   -0.237776
    10  C   -0.130092
    11  C   -0.181838
    12  C    0.069152
    13  Br  -0.117953
    14  C   -0.206375
    15  H    0.144356
    16  H    0.146288
    17  H    0.144028
    18  H    0.150646
    19  H    0.147376
    20  H    0.146721
    21  H    0.148289
    22  H    0.158650
    23  H    0.141692
    24  H    0.150555
    25  H    0.149917
    26  H    0.185530
    27  H    0.166444
    28  H    0.178483
    29  H    0.194319
 Sum of Mulliken charges =  -0.00000

 Dipole moment (field-independent basis, Debye):
    X=              2.3231    Y=              0.5501    Z=              0.4957  Tot=              2.4382
 Quadrupole moment (field-independent basis, Debye-Ang):
   XX=            -97.4414   YY=            -88.4385   ZZ=            -96.9805
   XY=             -6.6329   XZ=             -2.8630   YZ=              1.1642

  Exact polarizability:     216.091       4.178     184.006       6.758      16.658     135.718
 Approx polarizability:     215.912       5.339     196.407      12.833      22.619     158.799

 Normal termination of Gaussian 16 at Tue Sep 17 11:24:30 2024.
 Gaussian 16:  ES64L-G16RevC.02  7-Dec-2021

 ----------------------------------------------------------------------
 #p M062X/def2tzvp geom=check guess=read scf(xqc,tight) integral(grid=u
 ltrafine) scrf(SMD, solvent=1,4-Dioxane) nmr=giao
 ----------------------------------------------------------------------

 ---
 spe
 ---
 Structure from the checkpoint file:  "smiles_00034_conf_3.chk"
 Charge =  0 Multiplicity = 1

                         Standard orientation:
 ---------------------------------------------------------------------
 Center     Atomic      Atomic             Coordinates (Angstroms)
 Number     Number       Type             X           Y           Z
 ---------------------------------------------------------------------
      1          6           0        3.906084    2.226116   -1.252172
      2          6           0        2.748247    1.260211   -1.088460
      3          8           0        2.827193    0.717241    0.236349
      4          6           0        1.808363   -0.206037    0.562937
      5          8           0        1.778798   -1.305810   -0.309933
      6          6           0        2.902446   -2.185336   -0.179799
      7          6           0        2.680934   -3.228363    0.907860
      8          6           0        0.427607    0.429346    0.585968
      9          6           0        0.276439    1.701654    1.147602
     10          6           0       -0.983025    2.291936    1.217223
     11          6           0       -2.106801    1.622105    0.730434
     12          6           0       -1.938841    0.356896    0.175741
     13         35           0       -3.468575   -0.574190   -0.499584
     14          6           0       -0.688490   -0.250520    0.096384
     15          1           0        3.839321    3.036259   -0.520282
     16          1           0        4.860465    1.712087   -1.106014
     17          1           0        3.897266    2.663237   -2.255322
     18          1           0        1.787220    1.772027   -1.227059
     19          1           0        2.799861    0.448542   -1.823196
     20          1           0        2.077448   -0.526829    1.579529
     21          1           0        3.011281   -2.666107   -1.156242
     22          1           0        3.807938   -1.596253    0.006884
     23          1           0        2.577100   -2.765065    1.893913
     24          1           0        1.774243   -3.804908    0.704527
     25          1           0        3.529743   -3.918650    0.951793
     26          1           0        1.153773    2.223367    1.514783
     27          1           0       -1.097190    3.280591    1.650821
     28          1           0       -3.091670    2.071091    0.779393
     29          1           0       -0.572387   -1.232249   -0.341735
 ---------------------------------------------------------------------

 SCF Done:  E(RM062X) =  -3152.81222922     A.U. after    1 cycles
