 Gaussian 16, Revision C.02,

 ----------------------------------------------------------------------
 #p B3LYP/gen pseudo=read EmpiricalDispersion=GD3BJ opt freq scf(xqc,ti
 ght) integral(grid=ultrafine)
 ----------------------------------------------------------------------

 ----------------------------------
 opt-freq conformers_unique/conf_aa
 ----------------------------------
 Symbolic Z-matrix:
 Charge =  0 Multiplicity = 1

 SCF Done:  E(RB3LYP) =  -236.990829950     A.U. after   14 cycles
 SCF Done:  E(RB3LYP) =  -236.992136583     A.U. after   12 cycles
 SCF Done:  E(RB3LYP) =  -236.992235810     A.U. after   10 cycles
 SCF Done:  E(RB3LYP) =  -236.992251224     A.U. after    9 cycles
 Optimization completed.
    -- Stationary point found.
 Normal termination of Gaussian 16 at Tue Sep 17 09:48:54 2024.

 ------------------------------------------------------------------
 #P Geom=AllCheck Guess=TCheck SCRF=Check GenChk RB3LYP/ChkBas Freq
 ------------------------------------------------------------------

 Structure from the checkpoint file:  "smiles_00083_conf_0.chk"
 ----------------------------------
 opt-freq conformers_unique/conf_aa
 ----------------------------------
 Charge =  0 Multiplicity = 1

 SCF Done:  E(RB3LYP) =  -236.992251224     A.U. after    1 cycles

                      1                      2                      3
                      A                      A                      A
 Frequencies --    197.6829               223.2640               294.1230
 Red. masses --      7.8665                 5.1015                11.1466
 Frc consts  --      0.1811                 0.1498                 0.5681
 IR Inten    --      0.7194                 0.8193                 0.2205

                      4                      5                      6
                      A                      A                      A
 Frequencies --    514.9138               624.8016               690.9128
 Red. masses --      1.6214                 2.8192                 2.8835
 Frc consts  --      0.2533                 0.6484                 0.8110
 IR Inten    --     67.8032                 4.3665                43.7014

                      7                      8                      9
                      A                      A                      A
 Frequencies --    792.2413               872.3458               934.4175
 Red. masses --      1.3234                 1.2854                 5.7981
 Frc consts  --      0.4894                 0.5763                 2.9827
 IR Inten    --     12.0967                16.0267                81.2788

                     10                     11                     12
                      A                      A                      A
 Frequencies --    955.2253              1056.8643              1157.8192
 Red. masses --      7.4887                 1.7241                 1.6438
 Frc consts  --      4.0259                 1.1346                 1.2983
 IR Inten    --     12.7194                24.8054                13.6220

                     13                     14                     15
                      A                      A                      A
 Frequencies --   1202.6628              1283.6864              1373.1410
 Red. masses --      2.7817                 1.8778                 4.4957
 Frc consts  --      2.3705                 1.8231                 4.9944
 IR Inten    --      6.7663                10.6657                 5.3179

                     16                     17                     18
                      A                      A                      A
 Frequencies --   1411.7058              1485.7378              1572.2844
 Red. masses --      4.7423                 2.5032                 3.2473
 Frc consts  --      5.5683                 3.2557                 4.7297
 IR Inten    --     10.1046                 2.2209                 5.5039

                     19                     20                     21
                      A                      A                      A
 Frequencies --   3274.4434              3292.1734              3679.3237
 Red. masses --      1.0973                 1.0991                 1.0817
 Frc consts  --      6.9317                 7.0189                 8.6276
 IR Inten    --      2.1045                 0.7334                94.2702

 - Thermochemistry -
 -------------------
 Temperature   298.150 Kelvin.  Pressure   1.00000 Atm.
 Atom     1 has atomic number 53 and mass 126.90040

 Molecular mass:   193.93002 amu.
 Principal axes and moments of inertia in atomic units:
                           1         2         3
     Eigenvalues --   190.511651927.883152118.39480
           X            0.99996  -0.00910   0.00014
           Y            0.00910   0.99996  -0.00006
           Z           -0.00014   0.00006   1.00000
 This molecule is an asymmetric top.
 Rotational symmetry number  1.
 Rotational temperatures (Kelvin)      0.45464     0.04493     0.04089
 Rotational constants (GHZ):           9.47313     0.93613     0.85194
 Zero-point vibrational energy     160836.5 (Joules/Mol)
                                   38.44086 (Kcal/Mol)
 Warning -- explicit consideration of   4 degrees of freedom as
           vibrations may cause significant error
 Vibrational temperatures:    284.42   321.23   423.18   740.85   898.95
          (Kelvin)            994.07  1139.86  1255.11  1344.42  1374.36
                             1520.59  1665.84  1730.36  1846.94  1975.64
                             2031.13  2137.65  2262.17  4711.19  4736.70
                             5293.73

 Zero-point correction=                           0.061259 (Hartree/Particle)
 Thermal correction to Energy=                    0.066419
 Thermal correction to Enthalpy=                  0.067364
 Thermal correction to Gibbs Free Energy=         0.030504
 Sum of electronic and zero-point Energies=           -236.930992
 Sum of electronic and thermal Energies=              -236.925832
 Sum of electronic and thermal Enthalpies=            -236.924888
 Sum of electronic and thermal Free Energies=         -236.961747

                     E (Thermal)             CV                S
                      KCal/Mol        Cal/Mol-Kelvin    Cal/Mol-Kelvin
 Total                   41.679             17.691             77.577
 Electronic               0.000              0.000              0.000
 Translational            0.889              2.981             41.692
 Rotational               0.889              2.981             28.144
 Vibrational             39.901             11.730              7.740
 Vibration     1          0.637              1.843              2.155
 Vibration     2          0.649              1.806              1.932
 Vibration     3          0.689              1.685              1.450
 Vibration     4          0.870              1.217              0.622

 Optimization completed.
    -- Stationary point found.
 Normal termination of Gaussian 16 at Tue Sep 17 09:49:06 2024.

 ----------------------------------------------------------------------
 #p M062X/def2tzvp geom=check guess=read scf(xqc,tight) integral(grid=u
 ltrafine) scrf(SMD, solvent=1,4-Dioxane) polar prop=efg volume
 ----------------------------------------------------------------------

 ---
 spe
 ---
 Structure from the checkpoint file:  "smiles_00083_conf_0.chk"
 Charge =  0 Multiplicity = 1

 SCF Done:  E(RM062X) =  -523.224491858     A.U. after   20 cycles

  Exact polarizability:     120.391      -1.161      82.132      -0.010       0.002      54.015
 Approx polarizability:     128.660      -1.404     100.381      -0.009       0.002      67.866

 1\1\GINC-HPC-19-18\SP\RM062X\def2TZVP\C3H3I1N2\MANTIND\17-Sep-2024\0\\
 #p M062X/def2tzvp geom=check guess=read scf(xqc,tight) integral(grid=u
 ltrafine) scrf(SMD, solvent=1,4-Dioxane) polar prop=efg volume\\spe\\0
 ,1\I,0,1.1687401949,-0.0037321486,0.0004799359\C,0,-0.9334289005,0.003
 3097122,0.0002373244\C,0,-1.8017565746,-1.1117552491,0.0001231047\N,0,
 -3.0760050475,-0.7240472023,-0.000078722\N,0,-3.0206246496,0.624957519
 2,-0.0002181171\C,0,-1.7537035383,1.1151103071,0.0000356541\H,0,-1.545
 9596683,-2.1613669905,0.0002355574\H,0,-3.8825587363,1.1477687128,-0.0

 Normal termination of Gaussian 16 at Tue Sep 17 09:53:46 2024.
 Gaussian 16:  ES64L-G16RevC.02  7-Dec-2021

 ----------------------------------------------------------------------
 #p M062X/def2tzvp geom=check guess=read scf(xqc,tight) integral(grid=u
 ltrafine) scrf(SMD, solvent=1,4-Dioxane) nmr=giao
 ----------------------------------------------------------------------

 ---
 spe
 ---
 Structure from the checkpoint file:  "smiles_00083_conf_0.chk"
 Charge =  0 Multiplicity = 1

                         Standard orientation:
 ---------------------------------------------------------------------
 Center     Atomic      Atomic             Coordinates (Angstroms)
 Number     Number       Type             X           Y           Z
 ---------------------------------------------------------------------
      1         53           0       -1.334968   -0.004221    0.000188
      2          6           0        0.767184    0.006732   -0.000054
      3          6           0        1.625935    1.129190   -0.000169
      4          7           0        2.903456    0.752404   -0.000370
      5          7           0        2.859625   -0.597026   -0.000510
      6          6           0        1.596946   -1.098006   -0.000256
      7          1           0        1.361162    2.176573   -0.000056
      8          1           0        3.726003   -1.112439   -0.000641
      9          1           0        1.384181   -2.155558   -0.000238
 ---------------------------------------------------------------------

 SCF Done:  E(RM062X) =  -523.224491858     A.U. after    1 cycles

      1  I    Isotropic =   442.5721   Anisotropy =    62.3462

      2  C    Isotropic =    71.7367   Anisotropy =    94.1865

      3  C    Isotropic =    20.2075   Anisotropy =   150.0452

      4  N    Isotropic =  -120.3212   Anisotropy =   438.8744

      5  N    Isotropic =    14.7022   Anisotropy =   179.8875

      6  C    Isotropic =    34.2736   Anisotropy =   149.9007

      7  H    Isotropic =    23.6105   Anisotropy =     8.4976

      8  H    Isotropic =    21.3545   Anisotropy =     5.4829

      9  H    Isotropic =    23.6512   Anisotropy =     7.1765

 The electronic state is 1-A.
 Alpha  occ. eigenvalues --  -14.83529 -14.78472 -10.59252 -10.58375 -10.57131
 Alpha  occ. eigenvalues --   -7.10962  -5.10351  -5.09251  -5.09229  -2.07189
 Alpha  occ. eigenvalues --   -2.06727  -2.06704  -2.05795  -2.05794  -1.17189
 Alpha  occ. eigenvalues --   -0.93001  -0.89804  -0.79133  -0.69900  -0.66876
 Alpha  occ. eigenvalues --   -0.62563  -0.53200  -0.52329  -0.48376  -0.44188
 Alpha  occ. eigenvalues --   -0.37987  -0.36837  -0.33003  -0.32394  -0.29060
 Alpha virt. eigenvalues --    0.00178   0.03669   0.07324   0.07879   0.11250
 Alpha virt. eigenvalues --    0.12119   0.14489   0.15443   0.17410   0.18278
 Alpha virt. eigenvalues --    0.19091   0.19918   0.23421   0.23435   0.24238

 Mulliken charges:
               1
     1  I   -0.061935
     2  C   -0.062859
     3  C   -0.105573
     4  N   -0.238781
     5  N   -0.096086
     6  C   -0.099150
     7  H    0.177710
     8  H    0.285965
     9  H    0.200710
 Sum of Mulliken charges =   0.00000

 Dipole moment (field-independent basis, Debye):
    X=              1.0409    Y=             -2.5820    Z=             -0.0003  Tot=              2.7839
 Quadrupole moment (field-independent basis, Debye-Ang):
   XX=            -51.2544   YY=            -50.2210   ZZ=            -58.5650
   XY=             -9.9329   XZ=             -0.0015   YZ=              0.0018

 1\1\GINC-HPC-19-18\SP\RM062X\def2TZVP\C3H3I1N2\MANTIND\17-Sep-2024\0\\
 #p M062X/def2tzvp geom=check guess=read scf(xqc,tight) integral(grid=u
 ltrafine) scrf(SMD, solvent=1,4-Dioxane) nmr=giao\\spe\\0,1\I,0,1.1687
 401949,-0.0037321486,0.0004799359\C,0,-0.9334289005,0.0033097122,0.000
 2373244\C,0,-1.8017565746,-1.1117552491,0.0001231047\N,0,-3.0760050475
 ,-0.7240472023,-0.000078722\N,0,-3.0206246496,0.6249575192,-0.00021811
 71\C,0,-1.7537035383,1.1151103071,0.0000356541\H,0,-1.5459596683,-2.16
 13669905,0.0002355574\H,0,-3.8825587363,1.1477687128,-0.0003489422\H,0

 Normal termination of Gaussian 16 at Tue Sep 17 09:55:14 2024.
