 Gaussian 16, Revision C.02,

 ----------------------------------------------------------------------
 #p B3LYP/6-31G(d,p) EmpiricalDispersion=GD3BJ opt freq scf(xqc,tight)
 integral(grid=ultrafine)
 ----------------------------------------------------------------------

 ----------------------------------
 opt-freq conformers_unique/conf_aa
 ----------------------------------
 Symbolic Z-matrix:
 Charge =  0 Multiplicity = 1

 SCF Done:  E(RB3LYP) =  -707.905240570     A.U. after   14 cycles
 SCF Done:  E(RB3LYP) =  -707.906450844     A.U. after   12 cycles
 SCF Done:  E(RB3LYP) =  -707.906511505     A.U. after   10 cycles
 SCF Done:  E(RB3LYP) =  -707.906517608     A.U. after    9 cycles
 Optimization completed.
    -- Stationary point found.
 Normal termination of Gaussian 16 at Tue Sep 17 09:50:40 2024.

 ----------------------------------------------------------------------
 #P Geom=AllCheck Guess=TCheck SCRF=Check GenChk RB3LYP/6-31G(d,p) Freq
 ----------------------------------------------------------------------

 Structure from the checkpoint file:  "smiles_00033_conf_0.chk"
 ----------------------------------
 opt-freq conformers_unique/conf_aa
 ----------------------------------
 Charge =  0 Multiplicity = 1

 SCF Done:  E(RB3LYP) =  -707.906517608     A.U. after    1 cycles

                      1                      2                      3
                      A                      A                      A
 Frequencies --    189.1864               293.9914               414.1629
 Red. masses --      4.6828                 6.3162                 3.1442
 Frc consts  --      0.0988                 0.3216                 0.3178
 IR Inten    --      0.1140                 1.1236                 2.5052

                      4                      5                      6
                      A                      A                      A
 Frequencies --    424.9505               471.3849               626.2018
 Red. masses --     12.1241                 4.2766                 7.8833
 Frc consts  --      1.2900                 0.5599                 1.8213
 IR Inten    --      6.3717                 0.0113                 5.5117

                      7                      8                      9
                      A                      A                      A
 Frequencies --    716.9142               742.7675               810.8040
 Red. masses --      2.5225                 7.6701                 1.4650
 Frc consts  --      0.7639                 2.4932                 0.5674
 IR Inten    --     20.1840                15.0558                22.3681

                     10                     11                     12
                      A                      A                      A
 Frequencies --    935.1853               960.3434               994.6051
 Red. masses --      1.3288                 1.3665                 1.3648
 Frc consts  --      0.6847                 0.7425                 0.7955
 IR Inten    --      0.4832                 1.2188                 0.1508

                     13                     14                     15
                      A                      A                      A
 Frequencies --   1028.5447              1068.1668              1126.7584
 Red. masses --      5.4111                 3.2963                 2.4737
 Frc consts  --      3.3727                 2.2160                 1.8504
 IR Inten    --     38.9010                 0.5856                51.1929

                     16                     17                     18
                      A                      A                      A
 Frequencies --   1143.4281              1228.6217              1299.4392
 Red. masses --      1.4244                 1.4238                 6.6274
 Frc consts  --      1.0972                 1.2663                 6.5933
 IR Inten    --      8.8485                 1.7913                 0.2319

                     19                     20                     21
                      A                      A                      A
 Frequencies --   1358.0329              1458.4517              1506.6712
 Red. masses --      1.3045                 2.2304                 2.0646
 Frc consts  --      1.4175                 2.7952                 2.7614
 IR Inten    --      2.5602                33.3206                26.9983

                     22                     23                     24
                      A                      A                      A
 Frequencies --   1623.0470              1625.8323              3177.4258
 Red. masses --      5.8957                 5.8008                 1.0888
 Frc consts  --      9.1506                 9.0343                 6.4766
 IR Inten    --      4.1154                 8.3935                16.7078

                     25                     26                     27
                      A                      A                      A
 Frequencies --   3188.0591              3207.1644              3223.5695
 Red. masses --      1.0922                 1.0914                 1.0966
 Frc consts  --      6.5407                 6.6142                 6.7137
 IR Inten    --      7.6384                 9.8223                 3.7754

 - Thermochemistry -
 -------------------
 Temperature   298.150 Kelvin.  Pressure   1.00000 Atm.
 Atom     1 has atomic number 17 and mass  34.96885

 Molecular mass:   113.00323 amu.
 Principal axes and moments of inertia in atomic units:
                           1         2         3
     Eigenvalues --   308.811001137.910461446.72145
           X            0.99984  -0.01765  -0.00004
           Y            0.01765   0.99984  -0.00001
           Z            0.00004   0.00001   1.00000
 This molecule is an asymmetric top.
 Rotational symmetry number  1.
 Rotational temperatures (Kelvin)      0.28048     0.07612     0.05987
 Rotational constants (GHZ):           5.84416     1.58601     1.24747
 Zero-point vibrational energy     208411.7 (Joules/Mol)
                                   49.81158 (Kcal/Mol)
 Warning -- explicit consideration of   5 degrees of freedom as
           vibrations may cause significant error
 Vibrational temperatures:    272.20   422.99   595.89   611.41   678.22
          (Kelvin)            900.96  1031.48  1068.68  1166.57  1345.52
                             1381.72  1431.01  1479.85  1536.85  1621.15
                             1645.14  1767.71  1869.60  1953.91  2098.39
                             2167.76  2335.20  2339.21  4571.61  4586.91
                             4614.39  4638.00

 Zero-point correction=                           0.079380 (Hartree/Particle)
 Thermal correction to Energy=                    0.084754
 Thermal correction to Enthalpy=                  0.085698
 Thermal correction to Gibbs Free Energy=         0.049646
 Sum of electronic and zero-point Energies=           -707.827138
 Sum of electronic and thermal Energies=              -707.821764
 Sum of electronic and thermal Enthalpies=            -707.820820
 Sum of electronic and thermal Free Energies=         -707.856871

                     E (Thermal)             CV                S
                      KCal/Mol        Cal/Mol-Kelvin    Cal/Mol-Kelvin
 Total                   53.184             19.958             75.877
 Electronic               0.000              0.000              0.000
 Translational            0.889              2.981             40.082
 Rotational               0.889              2.981             27.721
 Vibrational             51.406             13.997              8.073
 Vibration     1          0.633              1.855              2.236
 Vibration     2          0.689              1.685              1.451
 Vibration     3          0.778              1.439              0.912
 Vibration     4          0.787              1.416              0.875
 Vibration     5          0.828              1.314              0.734

 Optimization completed.
    -- Stationary point found.
 Normal termination of Gaussian 16 at Tue Sep 17 09:51:01 2024.

 ----------------------------------------------------------------------
 #p M062X/def2tzvp geom=check guess=read scf(xqc,tight) integral(grid=u
 ltrafine) scrf(SMD, solvent=1,4-Dioxane) polar prop=efg volume
 ----------------------------------------------------------------------

 ---
 spe
 ---
 Structure from the checkpoint file:  "smiles_00033_conf_0.chk"
 Charge =  0 Multiplicity = 1

 SCF Done:  E(RM062X) =  -707.872850915     A.U. after   12 cycles

  Exact polarizability:     117.545      -2.698      88.763       0.003       0.000      47.275
 Approx polarizability:     126.967      -1.774     104.694       0.002       0.001      58.156

 Normal termination of Gaussian 16 at Tue Sep 17 09:54:59 2024.
 Gaussian 16:  ES64L-G16RevC.02  7-Dec-2021

 ----------------------------------------------------------------------
 #p M062X/def2tzvp geom=check guess=read scf(xqc,tight) integral(grid=u
 ltrafine) scrf(SMD, solvent=1,4-Dioxane) nmr=giao
 ----------------------------------------------------------------------

 ---
 spe
 ---
 Structure from the checkpoint file:  "smiles_00033_conf_0.chk"
 Charge =  0 Multiplicity = 1

                         Standard orientation:
 ---------------------------------------------------------------------
 Center     Atomic      Atomic             Coordinates (Angstroms)
 Number     Number       Type             X           Y           Z
 ---------------------------------------------------------------------
      1         17           0        2.242609    0.009735    0.000085
      2          6           0        0.490643    0.017313    0.000018
      3          6           0       -0.209835    1.219798    0.000005
      4          6           0       -1.601503    1.157354   -0.000046
      5          6           0       -2.218294   -0.093625   -0.000081
      6          7           0       -1.542204   -1.249088   -0.000073
      7          6           0       -0.208030   -1.191793   -0.000026
      8          1           0        0.318909    2.166274    0.000034
      9          1           0       -2.196067    2.064792   -0.000058
     10          1           0       -3.302739   -0.172890   -0.000122
     11          1           0        0.333094   -2.134333   -0.000015
 ---------------------------------------------------------------------

 SCF Done:  E(RM062X) =  -707.872850915     A.U. after    1 cycles

      1  Cl   Isotropic =   707.3798   Anisotropy =   466.2655

      2  C    Isotropic =    24.5377   Anisotropy =   147.9832

      3  C    Isotropic =    25.5374   Anisotropy =   209.5915

      4  C    Isotropic =    40.2810   Anisotropy =   203.6900

      5  C    Isotropic =    12.6291   Anisotropy =   208.9683

      6  N    Isotropic =  -149.4113   Anisotropy =   655.8488

      7  C    Isotropic =    11.5651   Anisotropy =   181.6832

      8  H    Isotropic =    23.3261   Anisotropy =     9.1522

      9  H    Isotropic =    23.7495   Anisotropy =     6.5420

     10  H    Isotropic =    22.3953   Anisotropy =     7.0051

     11  H    Isotropic =    22.2918   Anisotropy =    10.1740

 The electronic state is 1-A.
 Alpha  occ. eigenvalues -- -102.65553 -14.76359 -10.61670 -10.59086 -10.58522
 Alpha  occ. eigenvalues --  -10.57495 -10.56284  -9.81789  -7.53991  -7.53473
 Alpha  occ. eigenvalues --   -7.53461  -1.06773  -0.97954  -0.90401  -0.85018
 Alpha  occ. eigenvalues --   -0.73171  -0.71157  -0.61171  -0.57266  -0.54357
 Alpha  occ. eigenvalues --   -0.50418  -0.49735  -0.48714  -0.44356  -0.42495
 Alpha  occ. eigenvalues --   -0.39327  -0.35427  -0.33858  -0.31462
 Alpha virt. eigenvalues --   -0.01017   0.00292   0.06055   0.10209   0.11542
 Alpha virt. eigenvalues --    0.12123   0.13950   0.14757   0.16207   0.17141
 Alpha virt. eigenvalues --    0.22339   0.23381   0.23488   0.23929   0.26241

 Mulliken charges:
               1
     1  Cl  -0.089242
     2  C    0.064338
     3  C   -0.138056
     4  C   -0.159101
     5  C   -0.053067
     6  N   -0.247558
     7  C   -0.069105
     8  H    0.183719
     9  H    0.166213
    10  H    0.166837
    11  H    0.175023
 Sum of Mulliken charges =  -0.00000

 Dipole moment (field-independent basis, Debye):
    X=             -0.7380    Y=              2.3447    Z=             -0.0000  Tot=              2.4581
 Quadrupole moment (field-independent basis, Debye-Ang):
   XX=            -46.3594   YY=            -44.9242   ZZ=            -49.5931
   XY=             -5.3147   XZ=              0.0001   YZ=             -0.0001

 Normal termination of Gaussian 16 at Tue Sep 17 09:56:45 2024.
