 Gaussian 16, Revision C.02,

 ----------------------------------------------------------------------
 #p B3LYP/6-31G(d,p) EmpiricalDispersion=GD3BJ opt freq scf(xqc,tight)
 integral(grid=ultrafine)
 ----------------------------------------------------------------------

 ----------------------------------
 opt-freq conformers_unique/conf_aj
 ----------------------------------
 Symbolic Z-matrix:
 Charge =  0 Multiplicity = 1

 SCF Done:  E(RB3LYP) =  -1163.67495818     A.U. after   15 cycles
 SCF Done:  E(RB3LYP) =  -1163.67719418     A.U. after   13 cycles
 SCF Done:  E(RB3LYP) =  -1163.67777329     A.U. after   13 cycles
 SCF Done:  E(RB3LYP) =  -1163.67772023     A.U. after   14 cycles
 SCF Done:  E(RB3LYP) =  -1163.67826300     A.U. after   13 cycles
 SCF Done:  E(RB3LYP) =  -1163.67843401     A.U. after   12 cycles
 SCF Done:  E(RB3LYP) =  -1163.67848159     A.U. after   13 cycles
 SCF Done:  E(RB3LYP) =  -1163.67856207     A.U. after   11 cycles
 SCF Done:  E(RB3LYP) =  -1163.67870950     A.U. after   12 cycles
 SCF Done:  E(RB3LYP) =  -1163.67864373     A.U. after   14 cycles
 SCF Done:  E(RB3LYP) =  -1163.67927720     A.U. after   11 cycles
 SCF Done:  E(RB3LYP) =  -1163.67935258     A.U. after   12 cycles
 SCF Done:  E(RB3LYP) =  -1163.67935494     A.U. after   10 cycles
 SCF Done:  E(RB3LYP) =  -1163.67935534     A.U. after    7 cycles
 SCF Done:  E(RB3LYP) =  -1163.67935545     A.U. after    7 cycles
 SCF Done:  E(RB3LYP) =  -1163.67935551     A.U. after    7 cycles
 SCF Done:  E(RB3LYP) =  -1163.67935555     A.U. after    7 cycles
 Optimization completed.
    -- Stationary point found.
 Normal termination of Gaussian 16 at Tue Sep 17 09:46:58 2024.

 ----------------------------------------------------------------------
 #P Geom=AllCheck Guess=TCheck SCRF=Check GenChk RB3LYP/6-31G(d,p) Freq
 ----------------------------------------------------------------------

 Structure from the checkpoint file:  "smiles_00058_conf_9.chk"
 ----------------------------------
 opt-freq conformers_unique/conf_aj
 ----------------------------------
 Charge =  0 Multiplicity = 1

 SCF Done:  E(RB3LYP) =  -1163.67935555     A.U. after    1 cycles

                      1                      2                      3
                      A                      A                      A
 Frequencies --     28.1556                28.3657                80.0478
 Red. masses --      7.3470                 5.5960                 4.4041
 Frc consts  --      0.0034                 0.0027                 0.0166
 IR Inten    --      0.0005                 3.5556                 0.3453

                      4                      5                      6
                      A                      A                      A
 Frequencies --     98.1980               111.5638               127.5588
 Red. masses --      4.9824                 2.3732                 1.1347
 Frc consts  --      0.0283                 0.0174                 0.0109
 IR Inten    --      1.5022                 0.0000                 0.4303

                      7                      8                      9
                      A                      A                      A
 Frequencies --    130.1226               132.6893               177.0641
 Red. masses --      1.2751                 7.3946                 5.2879
 Frc consts  --      0.0127                 0.0767                 0.0977
 IR Inten    --      0.0000                 0.0000                10.8121

                     10                     11                     12
                      A                      A                      A
 Frequencies --    197.5079               226.6189               256.9194
 Red. masses --      3.9749                 7.0642                 5.4372
 Frc consts  --      0.0914                 0.2138                 0.2115
 IR Inten    --      0.0000                 0.1601                 9.2746

                     13                     14                     15
                      A                      A                      A
 Frequencies --    267.5201               325.8864               353.6276
 Red. masses --      6.7811                 4.6086                 6.6913
 Frc consts  --      0.2859                 0.2884                 0.4930
 IR Inten    --      1.8696                 0.0000                25.8333

                     16                     17                     18
                      A                      A                      A
 Frequencies --    380.0362               400.2129               489.8915
 Red. masses --     13.4991                 6.7043                 9.8230
 Frc consts  --      1.1487                 0.6327                 1.3890
 IR Inten    --      0.1613                 0.0371                 2.7580

                     19                     20                     21
                      A                      A                      A
 Frequencies --    506.8979               534.9859               560.5598
 Red. masses --      6.2857                 6.5586                 6.0824
 Frc consts  --      0.9516                 1.1060                 1.1261
 IR Inten    --      0.0000                16.6053                 1.2475

                     22                     23                     24
                      A                      A                      A
 Frequencies --    699.0923               747.0944               771.0099
 Red. masses --      6.4744                 6.8116                 7.3361
 Frc consts  --      1.8643                 2.2400                 2.5694
 IR Inten    --     10.9508                23.2180                87.5657

                     25                     26                     27
                      A                      A                      A
 Frequencies --    784.9508               791.3041               863.9211
 Red. masses --      4.3644                 7.2732                 7.2629
 Frc consts  --      1.5844                 2.6833                 3.1938
 IR Inten    --     13.6842                 0.0000                13.2130

                     28                     29                     30
                      A                      A                      A
 Frequencies --    890.9851               915.0252               935.4350
 Red. masses --      5.9564                 1.5766                 1.4097
 Frc consts  --      2.7859                 0.7778                 0.7268
 IR Inten    --      2.3133                15.4119                 0.0000

                     31                     32                     33
                      A                      A                      A
 Frequencies --   1006.4640              1014.2841              1051.7424
 Red. masses --      7.2834                 7.4423                 9.1524
 Frc consts  --      4.3469                 4.5111                 5.9649
 IR Inten    --     31.3432                 1.2767                85.7256

                     34                     35                     36
                      A                      A                      A
 Frequencies --   1124.0652              1180.5722              1180.6038
 Red. masses --      1.5596                 1.2762                 1.2762
 Frc consts  --      1.1610                 1.0479                 1.0480
 IR Inten    --      3.7943                 0.0074                 1.6795

                     37                     38                     39
                      A                      A                      A
 Frequencies --   1187.1115              1189.9840              1220.2392
 Red. masses --      1.6197                 2.7688                 1.5291
 Frc consts  --      1.3448                 2.3101                 1.3415
 IR Inten    --     48.0528                 0.5360                32.9667

                     40                     41                     42
                      A                      A                      A
 Frequencies --   1225.1565              1264.9050              1317.1441
 Red. masses --      2.2635                 4.8407                 5.3752
 Frc consts  --      2.0017                 4.5632                 5.4943
 IR Inten    --      4.3444              1082.6461                52.7858

                     43                     44                     45
                      A                      A                      A
 Frequencies --   1325.4354              1429.6313              1470.1193
 Red. masses --     11.4311                 3.5945                 2.3810
 Frc consts  --     11.8320                 4.3285                 3.0318
 IR Inten    --      2.8017                 0.0282                 5.8173

                     46                     47                     48
                      A                      A                      A
 Frequencies --   1481.3426              1485.6010              1495.2387
 Red. masses --      1.2021                 1.6113                 1.0460
 Frc consts  --      1.5542                 2.0952                 1.3779
 IR Inten    --     15.3299                 1.6455                 3.4058

                     49                     50                     51
                      A                      A                      A
 Frequencies --   1495.2613              1509.8057              1509.9622
 Red. masses --      1.0460                 1.0504                 1.0515
 Frc consts  --      1.3780                 1.4108                 1.4125
 IR Inten    --     10.0361                11.5426                 6.7765

                     52                     53                     54
                      A                      A                      A
 Frequencies --   1607.6650              1620.9926              1837.1585
 Red. masses --      6.0622                 9.9795                12.0750
 Frc consts  --      9.2315                15.4497                24.0122
 IR Inten    --    150.1149                 4.8670                 1.9748

                     55                     56                     57
                      A                      A                      A
 Frequencies --   1845.2605              3067.8986              3068.0503
 Red. masses --     12.0545                 1.0296                 1.0297
 Frc consts  --     24.1833                 5.7096                 5.7104
 IR Inten    --    358.5446                62.3883                 6.0056

                     58                     59                     60
                      A                      A                      A
 Frequencies --   3146.6000              3146.6587              3179.8853
 Red. masses --      1.1071                 1.1071                 1.1074
 Frc consts  --      6.4583                 6.4586                 6.5973
 IR Inten    --     11.1244                23.7655                14.1258

                     61                     62                     63
                      A                      A                      A
 Frequencies --   3179.9248              3259.4921              3259.8239
 Red. masses --      1.1074                 1.0934                 1.0922
 Frc consts  --      6.5975                 6.8442                 6.8381
 IR Inten    --     14.2946                 0.6234                 3.6483

 - Thermochemistry -
 -------------------
 Temperature   298.150 Kelvin.  Pressure   1.00000 Atm.
 Atom     1 has atomic number  6 and mass  12.00000

 Molecular mass:   229.01419 amu.
 Principal axes and moments of inertia in atomic units:
                           1         2         3
     Eigenvalues --  2773.474605344.849688095.60559
           X            1.00000   0.00000  -0.00000
           Y           -0.00000   1.00000  -0.00000
           Z            0.00000   0.00000   1.00000
 This molecule is an asymmetric top.
 Rotational symmetry number  1.
 Warning -- assumption of classical behavior for rotation
           may cause significant error
 Rotational temperatures (Kelvin)      0.03123     0.01621     0.01070
 Rotational constants (GHZ):           0.65071     0.33766     0.22293
 Zero-point vibrational energy     431835.9 (Joules/Mol)
                                  103.21126 (Kcal/Mol)
 Warning -- explicit consideration of  21 degrees of freedom as
           vibrations may cause significant error
 Vibrational temperatures:     40.51    40.81   115.17   141.28   160.52
          (Kelvin)            183.53   187.22   190.91   254.76   284.17
                              326.05   369.65   384.90   468.88   508.79
                              546.79   575.82   704.84   729.31   769.73
                              806.52  1005.84  1074.90  1109.31  1129.37
                             1138.51  1242.99  1281.93  1316.52  1345.88
                             1448.08  1459.33  1513.22  1617.28  1698.58
                             1698.63  1707.99  1712.12  1755.65  1762.73
                             1819.92  1895.08  1907.01  2056.92  2115.17
                             2131.32  2137.45  2151.31  2151.35  2172.27
                             2172.50  2313.07  2332.25  2643.26  2654.92
                             4414.02  4414.24  4527.26  4527.34  4575.15
                             4575.20  4689.68  4690.16

 Zero-point correction=                           0.164478 (Hartree/Particle)
 Thermal correction to Energy=                    0.179157
 Thermal correction to Enthalpy=                  0.180101
 Thermal correction to Gibbs Free Energy=         0.120323
 Sum of electronic and zero-point Energies=          -1163.514878
 Sum of electronic and thermal Energies=             -1163.500199
 Sum of electronic and thermal Enthalpies=           -1163.499255
 Sum of electronic and thermal Free Energies=        -1163.559033

                     E (Thermal)             CV                S
                      KCal/Mol        Cal/Mol-Kelvin    Cal/Mol-Kelvin
 Total                  112.422             50.910            125.813
 Electronic               0.000              0.000              0.000
 Translational            0.889              2.981             42.188
 Rotational               0.889              2.981             33.150
 Vibrational            110.645             44.948             50.474
 Vibration     1          0.593              1.984              5.955
 Vibration     2          0.593              1.984              5.941
 Vibration     3          0.600              1.963              3.890
 Vibration     4          0.604              1.950              3.490
 Vibration     5          0.607              1.940              3.242
 Vibration     6          0.611              1.926              2.983
 Vibration     7          0.612              1.923              2.944
 Vibration     8          0.613              1.921              2.907
 Vibration     9          0.628              1.871              2.359
 Vibration    10          0.637              1.843              2.156
 Vibration    11          0.650              1.800              1.906
 Vibration    12          0.667              1.751              1.683
 Vibration    13          0.673              1.733              1.612
 Vibration    14          0.710              1.624              1.280
 Vibration    15          0.730              1.568              1.150
 Vibration    16          0.750              1.513              1.039
 Vibration    17          0.766              1.470              0.962
 Vibration    18          0.846              1.272              0.684
 Vibration    19          0.862              1.235              0.641
 Vibration    20          0.890              1.173              0.576
 Vibration    21          0.916              1.117              0.523

                           ! Non-Optimized Parameters !
 Normal termination of Gaussian 16 at Tue Sep 17 09:49:06 2024.

 ----------------------------------------------------------------------
 #p M062X/def2tzvp geom=check guess=read scf(xqc,tight) integral(grid=u
 ltrafine) scrf(SMD, solvent=1,4-Dioxane) polar prop=efg volume
 ----------------------------------------------------------------------

 ---
 spe
 ---
 Structure from the checkpoint file:  "smiles_00058_conf_9.chk"
 Charge =  0 Multiplicity = 1

 SCF Done:  E(RM062X) =  -1163.64117778     A.U. after   12 cycles

  Exact polarizability:     197.020      -0.001     182.395      -0.001       0.003      87.521
 Approx polarizability:     186.872      -0.001     210.410      -0.002       0.005     108.518

 Normal termination of Gaussian 16 at Tue Sep 17 10:43:46 2024.
 Gaussian 16:  ES64L-G16RevC.02  7-Dec-2021

 ----------------------------------------------------------------------
 #p M062X/def2tzvp geom=check guess=read scf(xqc,tight) integral(grid=u
 ltrafine) scrf(SMD, solvent=1,4-Dioxane) nmr=giao
 ----------------------------------------------------------------------

 ---
 spe
 ---
 Structure from the checkpoint file:  "smiles_00058_conf_9.chk"
 Charge =  0 Multiplicity = 1

                         Standard orientation:
 ---------------------------------------------------------------------
 Center     Atomic      Atomic             Coordinates (Angstroms)
 Number     Number       Type             X           Y           Z
 ---------------------------------------------------------------------
      1          6           0        4.751572   -1.052463    0.000195
      2          8           0        3.500960   -0.344766    0.000147
      3          6           0        2.401746   -1.134736   -0.000037
      4          8           0        2.437139   -2.341000   -0.000132
      5          6           0        1.142416   -0.305979   -0.000060
      6          6           0        1.204432    1.093480   -0.000151
      7          6           0       -0.000031    1.787571   -0.000041
      8         17           0       -0.000069    3.535632   -0.000057
      9          6           0       -1.204474    1.093437    0.000082
     10          6           0       -1.142413   -0.306010    0.000009
     11          6           0       -2.401713   -1.134810   -0.000044
     12          8           0       -2.437045   -2.341076   -0.000306
     13          8           0       -3.500914   -0.344847    0.000206
     14          6           0       -4.751542   -1.052518    0.000176
     15          7           0        0.000015   -0.996087   -0.000026
     16          1           0        5.524040   -0.284603    0.000695
     17          1           0        4.832108   -1.683360    0.888270
     18          1           0        4.832513   -1.682715   -0.888288
     19          1           0        2.155633    1.607004   -0.000339
     20          1           0       -2.155691    1.606935    0.000255
     21          1           0       -4.831847   -1.683940    0.887880
     22          1           0       -5.523975   -0.284619    0.001314
     23          1           0       -4.832782   -1.682158   -0.888722
 ---------------------------------------------------------------------

 SCF Done:  E(RM062X) =  -1163.64117778     A.U. after    1 cycles

      1  C    Isotropic =   130.2653   Anisotropy =    72.9874

      2  O    Isotropic =   132.4361   Anisotropy =   174.1099

      3  C    Isotropic =     4.6750   Anisotropy =    92.4406

      4  O    Isotropic =  -154.9223   Anisotropy =   743.2553

      5  C    Isotropic =    12.1205   Anisotropy =   173.0877

      6  C    Isotropic =    34.5574   Anisotropy =   191.1435

      7  C    Isotropic =     7.2034   Anisotropy =   172.5935

      8  Cl   Isotropic =   654.5563   Anisotropy =   493.0637

      9  C    Isotropic =    34.5575   Anisotropy =   191.1418

     10  C    Isotropic =    12.1204   Anisotropy =   173.0883

     11  C    Isotropic =     4.6763   Anisotropy =    92.4416

     12  O    Isotropic =  -154.9090   Anisotropy =   743.2381

     13  O    Isotropic =   132.4444   Anisotropy =   174.0906

     14  C    Isotropic =   130.2659   Anisotropy =    72.9893

     15  N    Isotropic =  -156.8625   Anisotropy =   681.7993

     16  H    Isotropic =    27.9592   Anisotropy =     7.4914

     17  H    Isotropic =    27.8609   Anisotropy =     8.1368

     18  H    Isotropic =    27.8619   Anisotropy =     8.1387

     19  H    Isotropic =    22.6869   Anisotropy =    13.2953

     20  H    Isotropic =    22.6868   Anisotropy =    13.2956

     21  H    Isotropic =    27.8602   Anisotropy =     8.1353

     22  H    Isotropic =    27.9592   Anisotropy =     7.4914

     23  H    Isotropic =    27.8627   Anisotropy =     8.1404

 The electronic state is 1-A.
 Alpha  occ. eigenvalues -- -102.66839 -19.68236 -19.68236 -19.62750 -19.62750
 Alpha  occ. eigenvalues --  -14.77957 -10.68558 -10.68558 -10.64175 -10.61672
 Alpha  occ. eigenvalues --  -10.61669 -10.59239 -10.59238 -10.58526 -10.58524
 Alpha  occ. eigenvalues --   -9.83079  -7.55283  -7.54764  -7.54738  -1.24233
 Alpha  occ. eigenvalues --   -1.24187  -1.15100  -1.15013  -1.08818  -1.00106
 Alpha  occ. eigenvalues --   -0.91718  -0.89899  -0.84489  -0.82104  -0.76777
 Alpha  occ. eigenvalues --   -0.73971  -0.66859  -0.66109  -0.63648  -0.60292
 Alpha  occ. eigenvalues --   -0.59029  -0.58910  -0.57837  -0.57406  -0.56215
 Alpha  occ. eigenvalues --   -0.55449  -0.51870  -0.51557  -0.49989  -0.49674
 Alpha  occ. eigenvalues --   -0.47865  -0.47818  -0.47055  -0.44298  -0.44019
 Alpha  occ. eigenvalues --   -0.43712  -0.40325  -0.38642  -0.38609  -0.37533
 Alpha  occ. eigenvalues --   -0.36544  -0.35700  -0.34781  -0.34633
 Alpha virt. eigenvalues --   -0.04736  -0.04148   0.04963   0.05000   0.08047
 Alpha virt. eigenvalues --    0.08273   0.10322   0.10590   0.11088   0.11569
 Alpha virt. eigenvalues --    0.12201   0.12976   0.15199   0.15380   0.15669

 Mulliken charges:
               1
     1  C   -0.272065
     2  O   -0.275800
     3  C    0.323652
     4  O   -0.311115
     5  C    0.090768
     6  C   -0.156841
     7  C    0.082629
     8  Cl  -0.055240
     9  C   -0.156834
    10  C    0.090766
    11  C    0.323647
    12  O   -0.311113
    13  O   -0.275791
    14  C   -0.272061
    15  N   -0.189274
    16  H    0.157709
    17  H    0.163989
    18  H    0.163988
    19  H    0.196651
    20  H    0.196650
    21  H    0.163990
    22  H    0.157708
    23  H    0.163987
 Sum of Mulliken charges =  -0.00000

 Dipole moment (field-independent basis, Debye):
    X=             -0.0004    Y=              4.4960    Z=              0.0007  Tot=              4.4960
 Quadrupole moment (field-independent basis, Debye-Ang):
   XX=            -59.6184   YY=           -109.2155   ZZ=            -91.3343
   XY=              0.0003   XZ=             -0.0012   YZ=             -0.0027

 Normal termination of Gaussian 16 at Tue Sep 17 11:04:04 2024.
