 Gaussian 16, Revision C.02,

 ----------------------------------------------------------------------
 #p B3LYP/6-31G(d,p) EmpiricalDispersion=GD3BJ opt freq scf(xqc,tight)
 integral(grid=ultrafine)
 ----------------------------------------------------------------------

 ----------------------------------
 opt-freq conformers_unique/conf_ae
 ----------------------------------
 Symbolic Z-matrix:
 Charge =  0 Multiplicity = 1

 SCF Done:  E(RB3LYP) =  -3110.64288703     A.U. after   15 cycles
 SCF Done:  E(RB3LYP) =  -3110.64425211     A.U. after   12 cycles
 SCF Done:  E(RB3LYP) =  -3110.64433232     A.U. after   12 cycles
 SCF Done:  E(RB3LYP) =  -3110.64449707     A.U. after   12 cycles
 SCF Done:  E(RB3LYP) =  -3110.64451378     A.U. after   11 cycles
 SCF Done:  E(RB3LYP) =  -3110.64456596     A.U. after   10 cycles
 SCF Done:  E(RB3LYP) =  -3110.64457441     A.U. after   10 cycles
 SCF Done:  E(RB3LYP) =  -3110.64457899     A.U. after    9 cycles
 SCF Done:  E(RB3LYP) =  -3110.64458360     A.U. after    9 cycles
 SCF Done:  E(RB3LYP) =  -3110.64459059     A.U. after   10 cycles
 SCF Done:  E(RB3LYP) =  -3110.64461936     A.U. after   13 cycles
 SCF Done:  E(RB3LYP) =  -3110.64468216     A.U. after   12 cycles
 SCF Done:  E(RB3LYP) =  -3110.64471050     A.U. after   10 cycles
 SCF Done:  E(RB3LYP) =  -3110.64472244     A.U. after   10 cycles
 SCF Done:  E(RB3LYP) =  -3110.64472360     A.U. after    9 cycles
 SCF Done:  E(RB3LYP) =  -3110.64472377     A.U. after    7 cycles
 SCF Done:  E(RB3LYP) =  -3110.64472378     A.U. after    6 cycles
 Optimization completed.
    -- Stationary point found.
 Normal termination of Gaussian 16 at Tue Sep 17 09:55:15 2024.

 ----------------------------------------------------------------------
 #P Geom=AllCheck Guess=TCheck SCRF=Check GenChk RB3LYP/6-31G(d,p) Freq
 ----------------------------------------------------------------------

 Structure from the checkpoint file:  "smiles_00081_conf_4.chk"
 ----------------------------------
 opt-freq conformers_unique/conf_ae
 ----------------------------------
 Charge =  0 Multiplicity = 1

 SCF Done:  E(RB3LYP) =  -3110.64472378     A.U. after    1 cycles

                      1                      2                      3
                      A                      A                      A
 Frequencies --     48.9062                57.8143                71.4010
 Red. masses --      3.4045                 1.2671                 3.6948
 Frc consts  --      0.0048                 0.0025                 0.0111
 IR Inten    --      0.6637                 0.8989                 7.0945

                      4                      5                      6
                      A                      A                      A
 Frequencies --     98.5988               155.6076               208.1477
 Red. masses --      6.4367                 8.2583                 8.7814
 Frc consts  --      0.0369                 0.1178                 0.2242
 IR Inten    --      3.0015                 4.3054                 0.2098

                      7                      8                      9
                      A                      A                      A
 Frequencies --    222.8713               247.6087               299.2532
 Red. masses --      7.4045                 7.4693                 7.1993
 Frc consts  --      0.2167                 0.2698                 0.3799
 IR Inten    --      0.1875                 2.5741                 3.1109

                     10                     11                     12
                      A                      A                      A
 Frequencies --    353.7003               382.8720               412.1140
 Red. masses --      5.9807                 3.6694                 1.3014
 Frc consts  --      0.4408                 0.3169                 0.1302
 IR Inten    --      0.9747                19.9607                81.0685

                     13                     14                     15
                      A                      A                      A
 Frequencies --    468.0532               484.1681               559.1449
 Red. masses --      3.3179                 4.5902                 7.0239
 Frc consts  --      0.4283                 0.6340                 1.2938
 IR Inten    --      5.4284                10.7879                 3.6790

                     16                     17                     18
                      A                      A                      A
 Frequencies --    582.9392               603.8199               619.7035
 Red. masses --      3.9142                 4.7007                 3.2002
 Frc consts  --      0.7837                 1.0098                 0.7241
 IR Inten    --      2.3906                 9.2306                 2.1821

                     19                     20                     21
                      A                      A                      A
 Frequencies --    683.7388               716.8715               813.3875
 Red. masses --      5.7618                 4.6012                 2.0082
 Frc consts  --      1.5871                 1.3932                 0.7828
 IR Inten    --      6.0239                 4.2914                15.6324

                     22                     23                     24
                      A                      A                      A
 Frequencies --    840.5416               883.2760               905.1372
 Red. masses --      2.3570                 1.3961                 6.1676
 Frc consts  --      0.9811                 0.6418                 2.9771
 IR Inten    --     17.0875                18.7984                67.0089

                     25                     26                     27
                      A                      A                      A
 Frequencies --    951.7083               965.7795              1011.3688
 Red. masses --      1.4912                 3.3169                 1.7483
 Frc consts  --      0.7958                 1.8228                 1.0537
 IR Inten    --      0.2806                 1.5787                16.2586

                     28                     29                     30
                      A                      A                      A
 Frequencies --   1053.8016              1094.1523              1155.6033
 Red. masses --      1.7264                 1.8774                 1.4779
 Frc consts  --      1.1296                 1.3242                 1.1628
 IR Inten    --     14.7842                14.6192                12.7188

                     31                     32                     33
                      A                      A                      A
 Frequencies --   1237.7103              1261.5859              1274.1613
 Red. masses --      2.3561                 3.0064                 1.5828
 Frc consts  --      2.1265                 2.8193                 1.5140
 IR Inten    --     63.6038               106.9852                12.3634

                     34                     35                     36
                      A                      A                      A
 Frequencies --   1297.0131              1351.5236              1407.5881
 Red. masses --      2.3643                 8.1821                 1.2688
 Frc consts  --      2.3434                 8.8056                 1.4811
 IR Inten    --      5.9552                51.6001                21.3192

                     37                     38                     39
                      A                      A                      A
 Frequencies --   1447.8250              1480.0654              1501.3461
 Red. masses --      3.3631                 1.0961                 1.0645
 Frc consts  --      4.1536                 1.4147                 1.4137
 IR Inten    --     70.7745                28.9172                 9.4600

                     40                     41                     42
                      A                      A                      A
 Frequencies --   1519.9759              1545.0307              1640.8946
 Red. masses --      2.0319                 3.4975                 7.0711
 Frc consts  --      2.7658                 4.9190                11.2176
 IR Inten    --    211.2173               303.9801                21.6463

                     43                     44                     45
                      A                      A                      A
 Frequencies --   1656.5947              1813.5975              3056.2604
 Red. masses --      7.1697                10.0563                 1.0379
 Frc consts  --     11.5926                19.4881                 5.7120
 IR Inten    --     10.4042               190.7108                 7.7777

                     46                     47                     48
                      A                      A                      A
 Frequencies --   3122.9811              3168.9810              3194.9509
 Red. masses --      1.1017                 1.1009                 1.0900
 Frc consts  --      6.3308                 6.5140                 6.5554
 IR Inten    --     13.0643                 6.5114                 7.0814

                     49                     50                     51
                      A                      A                      A
 Frequencies --   3230.9024              3239.7277              3638.1950
 Red. masses --      1.0939                 1.0928                 1.0772
 Frc consts  --      6.7276                 6.7576                 8.4007
 IR Inten    --      1.0577                 0.8659                23.0945

 - Thermochemistry -
 -------------------
 Temperature   298.150 Kelvin.  Pressure   1.00000 Atm.
 Atom     1 has atomic number  6 and mass  12.00000

 Molecular mass:   230.96950 amu.
 Principal axes and moments of inertia in atomic units:
                           1         2         3
     Eigenvalues --   786.758576711.768587202.02549
           X            0.99997   0.00790   0.00016
           Y           -0.00789   0.99987  -0.01400
           Z           -0.00027   0.01400   0.99990
 This molecule is an asymmetric top.
 Rotational symmetry number  1.
 Warning -- assumption of classical behavior for rotation
           may cause significant error
 Rotational temperatures (Kelvin)      0.11009     0.01290     0.01203
 Rotational constants (GHZ):           2.29389     0.26889     0.25059
 Zero-point vibrational energy     359113.0 (Joules/Mol)
                                   85.83006 (Kcal/Mol)
 Warning -- explicit consideration of  18 degrees of freedom as
           vibrations may cause significant error
 Vibrational temperatures:     70.37    83.18   102.73   141.86   223.88
          (Kelvin)            299.48   320.66   356.25   430.56   508.90
                              550.87   592.94   673.42   696.61   804.48
                              838.72   868.76   891.62   983.75  1031.42
                             1170.28  1209.35  1270.84  1302.29  1369.30
                             1389.54  1455.13  1516.19  1574.24  1662.66
                             1780.79  1815.14  1833.23  1866.11  1944.54
                             2025.21  2083.10  2129.48  2160.10  2186.91
                             2222.95  2360.88  2383.47  2609.36  4397.28
                             4493.27  4559.46  4596.82  4648.55  4661.25
                             5234.55

 Zero-point correction=                           0.136779 (Hartree/Particle)
 Thermal correction to Energy=                    0.148315
 Thermal correction to Enthalpy=                  0.149259
 Thermal correction to Gibbs Free Energy=         0.097283
 Sum of electronic and zero-point Energies=          -3110.507945
 Sum of electronic and thermal Energies=             -3110.496409
 Sum of electronic and thermal Enthalpies=           -3110.495465
 Sum of electronic and thermal Free Energies=        -3110.547440

                     E (Thermal)             CV                S
                      KCal/Mol        Cal/Mol-Kelvin    Cal/Mol-Kelvin
 Total                   93.069             41.457            109.392
 Electronic               0.000              0.000              0.000
 Translational            0.889              2.981             42.213
 Rotational               0.889              2.981             32.009
 Vibrational             91.292             35.495             35.170
 Vibration     1          0.595              1.978              4.861
 Vibration     2          0.596              1.974              4.530
 Vibration     3          0.598              1.968              4.114
 Vibration     4          0.604              1.950              3.482
 Vibration     5          0.620              1.896              2.603
 Vibration     6          0.641              1.828              2.060
 Vibration     7          0.649              1.806              1.936
 Vibration     8          0.661              1.767              1.748
 Vibration     9          0.692              1.675              1.421
 Vibration    10          0.730              1.568              1.150
 Vibration    11          0.752              1.507              1.028
 Vibration    12          0.776              1.444              0.919
 Vibration    13          0.825              1.321              0.743
 Vibration    14          0.840              1.285              0.699
 Vibration    15          0.915              1.120              0.526
 Vibration    16          0.940              1.068              0.480
 Vibration    17          0.962              1.024              0.443
 Vibration    18          0.980              0.990              0.417

 Optimization completed.
    -- Stationary point found.
 Normal termination of Gaussian 16 at Tue Sep 17 09:56:17 2024.

 ----------------------------------------------------------------------
 #p M062X/def2tzvp geom=check guess=read scf(xqc,tight) integral(grid=u
 ltrafine) scrf(SMD, solvent=1,4-Dioxane) polar prop=efg volume
 ----------------------------------------------------------------------

 ---
 spe
 ---
 Structure from the checkpoint file:  "smiles_00081_conf_4.chk"
 Charge =  0 Multiplicity = 1

 SCF Done:  E(RM062X) =  -3113.09873537     A.U. after   12 cycles

  Exact polarizability:     207.822       3.063     131.017      -4.236      -3.034      88.418
 Approx polarizability:     194.845       1.655     159.458      -6.226      -4.333     109.979

 Normal termination of Gaussian 16 at Tue Sep 17 10:31:51 2024.
 Gaussian 16:  ES64L-G16RevC.02  7-Dec-2021

 ----------------------------------------------------------------------
 #p M062X/def2tzvp geom=check guess=read scf(xqc,tight) integral(grid=u
 ltrafine) scrf(SMD, solvent=1,4-Dioxane) nmr=giao
 ----------------------------------------------------------------------

 ---
 spe
 ---
 Structure from the checkpoint file:  "smiles_00081_conf_4.chk"
 Charge =  0 Multiplicity = 1

                         Standard orientation:
 ---------------------------------------------------------------------
 Center     Atomic      Atomic             Coordinates (Angstroms)
 Number     Number       Type             X           Y           Z
 ---------------------------------------------------------------------
      1          6           0        4.997767    0.362899   -0.006673
      2          6           0        3.556676    0.033637    0.339823
      3          8           0        3.244431   -0.766690    1.201382
      4          7           0        2.619873    0.691787   -0.441706
      5          6           0        1.227755    0.518807   -0.295304
      6          6           0        0.378738    1.614088   -0.115887
      7          6           0       -1.000239    1.452683   -0.001996
      8          6           0       -1.532419    0.166635   -0.045084
      9         35           0       -3.415687   -0.077312    0.132661
     10          6           0       -0.717824   -0.948364   -0.222580
     11          6           0        0.649571   -0.754693   -0.363059
     12          9           0        1.426045   -1.819755   -0.602009
     13          1           0        5.356951   -0.349657   -0.756498
     14          1           0        5.124496    1.372563   -0.408652
     15          1           0        5.606095    0.247609    0.890554
     16          1           0        2.931284    1.464011   -1.011794
     17          1           0        0.812514    2.607472   -0.054436
     18          1           0       -1.648280    2.309234    0.134958
     19          1           0       -1.123140   -1.950656   -0.273735
 ---------------------------------------------------------------------

 SCF Done:  E(RM062X) =  -3113.09873537     A.U. after    1 cycles

      1  C    Isotropic =   160.8228   Anisotropy =    50.8765

      2  C    Isotropic =    -1.1620   Anisotropy =   139.7005

      3  O    Isotropic =  -162.5894   Anisotropy =   751.4340

      4  N    Isotropic =   112.8308   Anisotropy =   151.7530

      5  C    Isotropic =    39.8680   Anisotropy =   158.0087

      6  C    Isotropic =    38.3890   Anisotropy =   182.5529

      7  C    Isotropic =    36.7967   Anisotropy =   177.9555

      8  C    Isotropic =    27.7469   Anisotropy =   144.2477

      9  Br   Isotropic =  2068.4262   Anisotropy =  1309.2678

     10  C    Isotropic =    44.3568   Anisotropy =   152.4545

     11  C    Isotropic =     5.6636   Anisotropy =   124.9674

     12  F    Isotropic =   284.5483   Anisotropy =   151.1692

     13  H    Isotropic =    29.4993   Anisotropy =     6.5326

     14  H    Isotropic =    29.9606   Anisotropy =     6.0274

     15  H    Isotropic =    29.8881   Anisotropy =     7.4688

     16  H    Isotropic =    24.8043   Anisotropy =     5.5706

     17  H    Isotropic =    24.1593   Anisotropy =     7.5000

     18  H    Isotropic =    23.9350   Anisotropy =     9.6733

     19  H    Isotropic =    23.9066   Anisotropy =    10.2333

 The electronic state is 1-A.
 Alpha  occ. eigenvalues -- -485.38042 -63.36519 -57.18467 -57.18227 -57.18221
 Alpha  occ. eigenvalues --  -25.26515 -19.60139 -14.78882 -10.65478 -10.64393
 Alpha  occ. eigenvalues --  -10.61322 -10.60404 -10.56690 -10.56558 -10.56300
 Alpha  occ. eigenvalues --  -10.54328  -9.03164  -6.85580  -6.84691  -6.84671
 Alpha  occ. eigenvalues --   -2.88956  -2.88635  -2.88610  -2.87782  -2.87782
 Alpha  occ. eigenvalues --   -1.38179  -1.16931  -1.05604  -0.98530  -0.90552
 Alpha  occ. eigenvalues --   -0.86740  -0.84987  -0.81054  -0.73218  -0.71292
 Alpha  occ. eigenvalues --   -0.67848  -0.63295  -0.60921  -0.59488  -0.58180
 Alpha  occ. eigenvalues --   -0.55923  -0.53635  -0.52489  -0.52216  -0.50266
 Alpha  occ. eigenvalues --   -0.48904  -0.47029  -0.46718  -0.45735  -0.43706
 Alpha  occ. eigenvalues --   -0.42568  -0.39221  -0.35722  -0.35131  -0.34216
 Alpha  occ. eigenvalues --   -0.32228  -0.29031
 Alpha virt. eigenvalues --   -0.00483   0.01015   0.03019   0.05872   0.06132
 Alpha virt. eigenvalues --    0.09792   0.10758   0.11788   0.12866   0.13575
 Alpha virt. eigenvalues --    0.15062   0.15714   0.16147   0.17592   0.17655

 Mulliken charges:
               1
     1  C   -0.482710
     2  C    0.384022
     3  O   -0.384336
     4  N   -0.431905
     5  C    0.183321
     6  C   -0.203300
     7  C   -0.177337
     8  C    0.047781
     9  Br  -0.102659
    10  C   -0.204176
    11  C    0.237066
    12  F   -0.193330
    13  H    0.179513
    14  H    0.146776
    15  H    0.169607
    16  H    0.275013
    17  H    0.183714
    18  H    0.182982
    19  H    0.189958
 Sum of Mulliken charges =  -0.00000

 Dipole moment (field-independent basis, Debye):
    X=              1.9495    Y=              4.2419    Z=             -2.6591  Tot=              5.3726
 Quadrupole moment (field-independent basis, Debye-Ang):
   XX=            -72.8776   YY=            -75.8458   ZZ=            -86.2004
   XY=             11.8104   XZ=             -8.8760   YZ=              0.6588

 Normal termination of Gaussian 16 at Tue Sep 17 10:47:58 2024.
