 Gaussian 16, Revision C.02,

 ----------------------------------------------------------------------
 #p B3LYP/6-31G(d,p) EmpiricalDispersion=GD3BJ opt freq scf(xqc,tight)
 integral(grid=ultrafine)
 ----------------------------------------------------------------------

 ----------------------------------
 opt-freq conformers_unique/conf_ab
 ----------------------------------
 Symbolic Z-matrix:
 Charge =  0 Multiplicity = 1

 SCF Done:  E(RB3LYP) =  -3110.65221495     A.U. after   15 cycles
 SCF Done:  E(RB3LYP) =  -3110.65333654     A.U. after   12 cycles
 SCF Done:  E(RB3LYP) =  -3110.65343347     A.U. after   11 cycles
 SCF Done:  E(RB3LYP) =  -3110.65346529     A.U. after   11 cycles
 SCF Done:  E(RB3LYP) =  -3110.65346615     A.U. after    8 cycles
 Optimization completed.
    -- Stationary point found.
 Normal termination of Gaussian 16 at Tue Sep 17 09:53:01 2024.

 ----------------------------------------------------------------------
 #P Geom=AllCheck Guess=TCheck SCRF=Check GenChk RB3LYP/6-31G(d,p) Freq
 ----------------------------------------------------------------------

 Structure from the checkpoint file:  "smiles_00081_conf_1.chk"
 ----------------------------------
 opt-freq conformers_unique/conf_ab
 ----------------------------------
 Charge =  0 Multiplicity = 1

 SCF Done:  E(RB3LYP) =  -3110.65346615     A.U. after    1 cycles

                      1                      2                      3
                      A                      A                      A
 Frequencies --     13.0280                53.7674                66.6950
 Red. masses --      1.1282                 5.5485                 3.7543
 Frc consts  --      0.0001                 0.0095                 0.0098
 IR Inten    --      1.5427                 1.1408                 7.3091

                      4                      5                      6
                      A                      A                      A
 Frequencies --    122.0905               151.1225               218.7014
 Red. masses --      6.7659                 5.5692                 9.7210
 Frc consts  --      0.0594                 0.0749                 0.2739
 IR Inten    --      3.7470                 0.0989                 2.5583

                      7                      8                      9
                      A                      A                      A
 Frequencies --    222.4139               239.7921               291.2948
 Red. masses --      6.2358                 8.0486                 9.4601
 Frc consts  --      0.1817                 0.2727                 0.4729
 IR Inten    --      0.0293                 2.7590                 2.7533

                     10                     11                     12
                      A                      A                      A
 Frequencies --    361.1692               391.3456               459.8841
 Red. masses --      5.8703                 4.6231                 3.2857
 Frc consts  --      0.4512                 0.4172                 0.4094
 IR Inten    --      0.0743                 6.4917                 3.4149

                     13                     14                     15
                      A                      A                      A
 Frequencies --    482.2606               553.4812               562.6526
 Red. masses --      4.9835                 8.9690                 1.7605
 Frc consts  --      0.6829                 1.6188                 0.3284
 IR Inten    --     15.4470                 4.9932                60.0732

                     16                     17                     18
                      A                      A                      A
 Frequencies --    590.4948               598.5711               639.0784
 Red. masses --      3.8308                 4.7649                 1.6496
 Frc consts  --      0.7870                 1.0059                 0.3970
 IR Inten    --      0.4065                 0.2733                19.4320

                     19                     20                     21
                      A                      A                      A
 Frequencies --    684.7343               708.9548               842.2097
 Red. masses --      6.1717                 4.6210                 4.8310
 Frc consts  --      1.7049                 1.3684                 2.0190
 IR Inten    --     11.7825                 0.0041                13.0299

                     22                     23                     24
                      A                      A                      A
 Frequencies --    853.6786               874.5248               882.9905
 Red. masses --      1.3653                 1.3636                 7.2033
 Frc consts  --      0.5862                 0.6145                 3.3090
 IR Inten    --     25.7804                19.8590                47.5344

                     25                     26                     27
                      A                      A                      A
 Frequencies --    971.2510               987.3690              1022.4579
 Red. masses --      5.6846                 1.3002                 1.6011
 Frc consts  --      3.1594                 0.7468                 0.9862
 IR Inten    --     13.1766                 1.7600                21.2566

                     28                     29                     30
                      A                      A                      A
 Frequencies --   1056.8430              1091.6017              1144.2715
 Red. masses --      1.6901                 1.8145                 1.8650
 Frc consts  --      1.1122                 1.2739                 1.4388
 IR Inten    --      9.9024                 6.5883                21.8348

                     31                     32                     33
                      A                      A                      A
 Frequencies --   1219.3724              1251.7634              1274.9374
 Red. masses --      2.0080                 2.6279                 1.5370
 Frc consts  --      1.7591                 2.4261                 1.4720
 IR Inten    --     19.1601                86.9064                16.7105

                     34                     35                     36
                      A                      A                      A
 Frequencies --   1318.4879              1364.5684              1413.4086
 Red. masses --      3.4726                 4.6922                 1.2562
 Frc consts  --      3.5568                 5.1477                 1.4785
 IR Inten    --     52.7870                78.1575                32.6280

                     37                     38                     39
                      A                      A                      A
 Frequencies --   1457.0759              1483.2276              1502.2800
 Red. masses --      3.9810                 1.0451                 1.0834
 Frc consts  --      4.9798                 1.3547                 1.4405
 IR Inten    --     75.3490                 5.8980                14.3703

                     40                     41                     42
                      A                      A                      A
 Frequencies --   1518.6048              1562.2686              1641.9988
 Red. masses --      2.3924                 2.9247                 5.5501
 Frc consts  --      3.2507                 4.2057                 8.8165
 IR Inten    --     68.2798               610.7928                59.6333

                     43                     44                     45
                      A                      A                      A
 Frequencies --   1665.7255              1791.3850              3062.9254
 Red. masses --      6.5936                 9.1901                 1.0355
 Frc consts  --     10.7790                17.3760                 5.7237
 IR Inten    --     27.7167               196.8754                 6.9690

                     46                     47                     48
                      A                      A                      A
 Frequencies --   3142.8839              3145.7469              3225.6820
 Red. masses --      1.1020                 1.1035                 1.0915
 Frc consts  --      6.4131                 6.4341                 6.6914
 IR Inten    --      6.9899                12.2253                 0.8592

                     49                     50                     51
                      A                      A                      A
 Frequencies --   3240.6409              3269.8685              3646.1136
 Red. masses --      1.0929                 1.0925                 1.0768
 Frc consts  --      6.7624                 6.8826                 8.4343
 IR Inten    --      0.7380                 9.1489                40.4152

 - Thermochemistry -
 -------------------
 Temperature   298.150 Kelvin.  Pressure   1.00000 Atm.
 Atom     1 has atomic number  6 and mass  12.00000

 Molecular mass:   230.96950 amu.
 Principal axes and moments of inertia in atomic units:
                           1         2         3
     Eigenvalues --   947.148196686.997807622.97640
           X            0.99999   0.00447  -0.00005
           Y           -0.00447   0.99999   0.00000
           Z            0.00005  -0.00000   1.00000
 This molecule is an asymmetric top.
 Rotational symmetry number  1.
 Warning -- assumption of classical behavior for rotation
           may cause significant error
 Rotational temperatures (Kelvin)      0.09145     0.01295     0.01136
 Rotational constants (GHZ):           1.90545     0.26989     0.23675
 Zero-point vibrational energy     360899.6 (Joules/Mol)
                                   86.25707 (Kcal/Mol)
 Warning -- explicit consideration of  17 degrees of freedom as
           vibrations may cause significant error
 Vibrational temperatures:     18.74    77.36    95.96   175.66   217.43
          (Kelvin)            314.66   320.00   345.01   419.11   519.64
                              563.06   661.67   693.87   796.34   809.53
                              849.59   861.21   919.49   985.18  1020.03
                             1211.75  1228.25  1258.25  1270.43  1397.41
                             1420.60  1471.09  1520.56  1570.57  1646.35
                             1754.40  1801.01  1834.35  1897.01  1963.31
                             2033.58  2096.41  2134.03  2161.45  2184.93
                             2247.76  2362.47  2396.61  2577.40  4406.87
                             4521.91  4526.03  4641.04  4662.56  4704.61
                             5245.94

 Zero-point correction=                           0.137459 (Hartree/Particle)
 Thermal correction to Energy=                    0.148919
 Thermal correction to Enthalpy=                  0.149863
 Thermal correction to Gibbs Free Energy=         0.096790
 Sum of electronic and zero-point Energies=          -3110.516007
 Sum of electronic and thermal Energies=             -3110.504547
 Sum of electronic and thermal Enthalpies=           -3110.503603
 Sum of electronic and thermal Free Energies=        -3110.556676

                     E (Thermal)             CV                S
                      KCal/Mol        Cal/Mol-Kelvin    Cal/Mol-Kelvin
 Total                   93.448             41.022            111.702
 Electronic               0.000              0.000              0.000
 Translational            0.889              2.981             42.213
 Rotational               0.889              2.981             32.246
 Vibrational             91.671             35.060             37.243
 Vibration     1          0.593              1.987              7.486
 Vibration     2          0.596              1.976              4.674
 Vibration     3          0.598              1.970              4.249
 Vibration     4          0.610              1.931              3.067
 Vibration     5          0.619              1.901              2.658
 Vibration     6          0.646              1.813              1.970
 Vibration     7          0.648              1.807              1.939
 Vibration     8          0.657              1.780              1.804
 Vibration     9          0.687              1.690              1.466
 Vibration    10          0.735              1.552              1.117
 Vibration    11          0.759              1.489              0.995
 Vibration    12          0.818              1.339              0.766
 Vibration    13          0.838              1.289              0.704
 Vibration    14          0.909              1.132              0.537
 Vibration    15          0.918              1.112              0.519
 Vibration    16          0.948              1.052              0.466
 Vibration    17          0.957              1.035              0.452

                           ! Non-Optimized Parameters !
 Normal termination of Gaussian 16 at Tue Sep 17 09:54:40 2024.

 ----------------------------------------------------------------------
 #p M062X/def2tzvp geom=check guess=read scf(xqc,tight) integral(grid=u
 ltrafine) scrf(SMD, solvent=1,4-Dioxane) polar prop=efg volume
 ----------------------------------------------------------------------

 ---
 spe
 ---
 Structure from the checkpoint file:  "smiles_00081_conf_1.chk"
 Charge =  0 Multiplicity = 1

 SCF Done:  E(RM062X) =  -3113.10372691     A.U. after   12 cycles

  Exact polarizability:     220.753       1.988     136.377      -0.028       0.010      79.255
 Approx polarizability:     204.832       1.246     167.418      -0.014       0.017      98.462

 Normal termination of Gaussian 16 at Tue Sep 17 10:40:10 2024.
 Gaussian 16:  ES64L-G16RevC.02  7-Dec-2021

 ----------------------------------------------------------------------
 #p M062X/def2tzvp geom=check guess=read scf(xqc,tight) integral(grid=u
 ltrafine) scrf(SMD, solvent=1,4-Dioxane) nmr=giao
 ----------------------------------------------------------------------

 ---
 spe
 ---
 Structure from the checkpoint file:  "smiles_00081_conf_1.chk"
 Charge =  0 Multiplicity = 1

                         Standard orientation:
 ---------------------------------------------------------------------
 Center     Atomic      Atomic             Coordinates (Angstroms)
 Number     Number       Type             X           Y           Z
 ---------------------------------------------------------------------
      1          6           0       -5.053590    0.033684    0.002779
      2          6           0       -3.656161   -0.561059   -0.000910
      3          8           0       -3.466699   -1.768064   -0.002144
      4          7           0       -2.641811    0.371831   -0.000756
      5          6           0       -1.261002    0.137536   -0.000510
      6          6           0       -0.649885   -1.123281   -0.000148
      7          6           0        0.741017   -1.228292    0.000116
      8          6           0        1.529761   -0.081916    0.000046
      9         35           0        3.430954   -0.236377    0.000398
     10          6           0        0.952055    1.186972   -0.000305
     11          6           0       -0.427537    1.264074   -0.000597
     12          9           0       -1.026164    2.484127   -0.000879
     13          1           0       -5.597806   -0.352253   -0.862740
     14          1           0       -5.576740   -0.311901    0.898204
     15          1           0       -5.072854    1.126103   -0.021290
     16          1           0       -2.900006    1.347334   -0.000428
     17          1           0       -1.275530   -2.003608   -0.000171
     18          1           0        1.207303   -2.205888    0.000383
     19          1           0        1.546029    2.091668   -0.000355
 ---------------------------------------------------------------------

 SCF Done:  E(RM062X) =  -3113.10372691     A.U. after    1 cycles

      1  C    Isotropic =   159.2074   Anisotropy =    51.6979

      2  C    Isotropic =    -3.2956   Anisotropy =   135.6850

      3  O    Isotropic =  -162.1499   Anisotropy =   753.9287

      4  N    Isotropic =   106.6412   Anisotropy =   115.2606

      5  C    Isotropic =    37.9806   Anisotropy =   163.6309

      6  C    Isotropic =    45.2770   Anisotropy =   199.6379

      7  C    Isotropic =    34.7402   Anisotropy =   181.0624

      8  C    Isotropic =    33.8036   Anisotropy =   135.2712

      9  Br   Isotropic =  2078.4572   Anisotropy =  1305.7002

     10  C    Isotropic =    48.0289   Anisotropy =   151.6928

     11  C    Isotropic =    13.6683   Anisotropy =   105.5967

     12  F    Isotropic =   316.0151   Anisotropy =   133.1582

     13  H    Isotropic =    29.6136   Anisotropy =     6.8424

     14  H    Isotropic =    29.5932   Anisotropy =     6.7999

     15  H    Isotropic =    30.0238   Anisotropy =     5.8586

     16  H    Isotropic =    23.8788   Anisotropy =    10.7130

     17  H    Isotropic =    22.1351   Anisotropy =    10.7126

     18  H    Isotropic =    23.8734   Anisotropy =    10.0601

     19  H    Isotropic =    23.9774   Anisotropy =     9.8573

 The electronic state is 1-A.
 Alpha  occ. eigenvalues -- -485.37953 -63.36428 -57.18376 -57.18136 -57.18131
 Alpha  occ. eigenvalues --  -25.27850 -19.60750 -14.80013 -10.66259 -10.64554
 Alpha  occ. eigenvalues --  -10.61064 -10.61030 -10.56870 -10.56106 -10.55874
 Alpha  occ. eigenvalues --  -10.54607  -9.03072  -6.85487  -6.84598  -6.84581
 Alpha  occ. eigenvalues --   -2.88864  -2.88541  -2.88520  -2.87691  -2.87691
 Alpha  occ. eigenvalues --   -1.39011  -1.17493  -1.06670  -0.98653  -0.90710
 Alpha  occ. eigenvalues --   -0.86764  -0.85379  -0.81255  -0.74105  -0.71857
 Alpha  occ. eigenvalues --   -0.66862  -0.65059  -0.61497  -0.59038  -0.58532
 Alpha  occ. eigenvalues --   -0.56294  -0.53793  -0.53621  -0.51838  -0.50911
 Alpha  occ. eigenvalues --   -0.49418  -0.47811  -0.47055  -0.44852  -0.44771
 Alpha  occ. eigenvalues --   -0.43004  -0.40568  -0.35798  -0.35651  -0.34373
 Alpha  occ. eigenvalues --   -0.32490  -0.28122
 Alpha virt. eigenvalues --   -0.00462   0.00868   0.03073   0.06245   0.06767
 Alpha virt. eigenvalues --    0.10336   0.10677   0.11840   0.12095   0.14118
 Alpha virt. eigenvalues --    0.15546   0.15820   0.15896   0.18167   0.18950

 Mulliken charges:
               1
     1  C   -0.477581
     2  C    0.406547
     3  O   -0.416507
     4  N   -0.372193
     5  C    0.115077
     6  C   -0.199645
     7  C   -0.172158
     8  C    0.040687
     9  Br  -0.105059
    10  C   -0.214114
    11  C    0.261709
    12  F   -0.225370
    13  H    0.175290
    14  H    0.175661
    15  H    0.144601
    16  H    0.271407
    17  H    0.216049
    18  H    0.183910
    19  H    0.191688
 Sum of Mulliken charges =  -0.00000

 Dipole moment (field-independent basis, Debye):
    X=             -2.2790    Y=              2.6147    Z=              0.0089  Tot=              3.4685
 Quadrupole moment (field-independent basis, Debye-Ang):
   XX=            -72.8753   YY=            -84.1301   ZZ=            -83.6404
   XY=            -10.5304   XZ=             -0.0395   YZ=             -0.0078

 Normal termination of Gaussian 16 at Tue Sep 17 10:57:19 2024.
