 Gaussian 16, Revision C.02,

 ----------------------------------------------------------------------
 #p B3LYP/6-31G(d,p) EmpiricalDispersion=GD3BJ opt freq scf(xqc,tight)
 integral(grid=ultrafine)
 ----------------------------------------------------------------------

 ----------------------------------
 opt-freq conformers_unique/conf_ab
 ----------------------------------
 Symbolic Z-matrix:
 Charge =  0 Multiplicity = 1

 SCF Done:  E(RB3LYP) =  -806.406070948     A.U. after   14 cycles
 SCF Done:  E(RB3LYP) =  -806.407169732     A.U. after   11 cycles
 SCF Done:  E(RB3LYP) =  -806.407227189     A.U. after   10 cycles
 SCF Done:  E(RB3LYP) =  -806.407235978     A.U. after    9 cycles
 SCF Done:  E(RB3LYP) =  -806.407236809     A.U. after    8 cycles
 Optimization completed.
    -- Stationary point found.
 Normal termination of Gaussian 16 at Tue Sep 17 09:51:02 2024.

 ----------------------------------------------------------------------
 #P Geom=AllCheck Guess=TCheck SCRF=Check GenChk RB3LYP/6-31G(d,p) Freq
 ----------------------------------------------------------------------

 Structure from the checkpoint file:  "smiles_00125_conf_1.chk"
 ----------------------------------
 opt-freq conformers_unique/conf_ab
 ----------------------------------
 Charge =  0 Multiplicity = 1

 SCF Done:  E(RB3LYP) =  -806.407236809     A.U. after    1 cycles

                      1                      2                      3
                      A                      A                      A
 Frequencies --     81.5974               192.0619               204.2232
 Red. masses --      3.3294                 3.9576                 5.5979
 Frc consts  --      0.0131                 0.0860                 0.1376
 IR Inten    --      3.6208                 0.1290                 0.2772

                      4                      5                      6
                      A                      A                      A
 Frequencies --    214.6728               279.3719               307.8114
 Red. masses --      2.0822                 1.5899                 3.8492
 Frc consts  --      0.0565                 0.0731                 0.2149
 IR Inten    --      0.5133                 0.5772                 2.6114

                      7                      8                      9
                      A                      A                      A
 Frequencies --    404.1520               454.4583               469.9692
 Red. masses --      9.2873                 3.1751                 5.4927
 Frc consts  --      0.8938                 0.3864                 0.7148
 IR Inten    --      5.9127                 2.1914                 0.5823

                     10                     11                     12
                      A                      A                      A
 Frequencies --    578.5406               586.7149               689.9387
 Red. masses --      4.7586                 5.1659                 2.5566
 Frc consts  --      0.9384                 1.0477                 0.7170
 IR Inten    --      8.0098                 0.1878                 5.6976

                     13                     14                     15
                      A                      A                      A
 Frequencies --    697.9723               775.9110               866.1756
 Red. masses --      7.2188                 1.3671                 5.9171
 Frc consts  --      2.0720                 0.4849                 2.6156
 IR Inten    --      7.8281                41.2253                46.9684

                     16                     17                     18
                      A                      A                      A
 Frequencies --    869.1567               874.3154               966.5528
 Red. masses --      1.3284                 1.4977                 1.2657
 Frc consts  --      0.5913                 0.6745                 0.6967
 IR Inten    --      8.0801                14.6443                 0.2042

                     19                     20                     21
                      A                      A                      A
 Frequencies --   1012.2140              1085.7711              1099.7489
 Red. masses --      5.5675                 4.7739                 2.1434
 Frc consts  --      3.3609                 3.3159                 1.5273
 IR Inten    --      5.3947               102.6371                56.3233

                     22                     23                     24
                      A                      A                      A
 Frequencies --   1123.3425              1179.4059              1199.0281
 Red. masses --      1.5148                 1.2731                 1.1191
 Frc consts  --      1.1262                 1.0434                 0.9480
 IR Inten    --      7.7670                 0.7206                 3.2793

                     25                     26                     27
                      A                      A                      A
 Frequencies --   1213.6703              1278.4679              1324.1250
 Red. masses --      1.3765                 2.5277                 1.8346
 Frc consts  --      1.1946                 2.4342                 1.8952
 IR Inten    --      0.3615                78.7378               103.7623

                     28                     29                     30
                      A                      A                      A
 Frequencies --   1367.2363              1478.9476              1487.1200
 Red. masses --      5.8452                 2.0802                 1.5043
 Frc consts  --      6.4378                 2.6807                 1.9601
 IR Inten    --     20.8475                31.1347                15.9242

                     31                     32                     33
                      A                      A                      A
 Frequencies --   1504.9879              1519.8864              1528.0702
 Red. masses --      1.0463                 1.1175                 2.0938
 Frc consts  --      1.3963                 1.5210                 2.8806
 IR Inten    --      5.8042                60.1457                59.2783

                     34                     35                     36
                      A                      A                      A
 Frequencies --   1633.6568              1656.4606              3019.2645
 Red. masses --      6.3539                 6.1193                 1.0347
 Frc consts  --      9.9910                 9.8927                 5.5575
 IR Inten    --     42.9135               161.5874                50.8446

                     37                     38                     39
                      A                      A                      A
 Frequencies --   3082.2444              3155.5517              3194.3703
 Red. masses --      1.1062                 1.1002                 1.0886
 Frc consts  --      6.1920                 6.4546                 6.5449
 IR Inten    --     40.1193                22.2682                 9.7445

                     40                     41                     42
                      A                      A                      A
 Frequencies --   3229.7888              3234.6313              3235.0094
 Red. masses --      1.0926                 1.0928                 1.0927
 Frc consts  --      6.7150                 6.7364                 6.7377
 IR Inten    --      3.7532                 1.7935                 4.4025

 - Thermochemistry -
 -------------------
 Temperature   298.150 Kelvin.  Pressure   1.00000 Atm.
 Atom     1 has atomic number  6 and mass  12.00000

 Molecular mass:   142.01854 amu.
 Principal axes and moments of inertia in atomic units:
                           1         2         3
     Eigenvalues --   571.236262256.315802816.05203
           X            0.99990  -0.01388  -0.00008
           Y            0.01388   0.99990  -0.00008
           Z            0.00008   0.00008   1.00000
 This molecule is an asymmetric top.
 Rotational symmetry number  1.
 Warning -- assumption of classical behavior for rotation
           may cause significant error
 Rotational temperatures (Kelvin)      0.15163     0.03839     0.03076
 Rotational constants (GHZ):           3.15936     0.79986     0.64088
 Zero-point vibrational energy     325124.6 (Joules/Mol)
                                   77.70665 (Kcal/Mol)
 Warning -- explicit consideration of  11 degrees of freedom as
           vibrations may cause significant error
 Vibrational temperatures:    117.40   276.33   293.83   308.87   401.95
          (Kelvin)            442.87   581.48   653.86   676.18   832.39
                              844.15   992.67  1004.23  1116.36  1246.23
                             1250.52  1257.94  1390.65  1456.35  1562.18
                             1582.29  1616.24  1696.90  1725.13  1746.20
                             1839.43  1905.12  1967.15  2127.88  2139.63
                             2165.34  2186.78  2198.55  2350.47  2383.28
                             4344.05  4434.66  4540.14  4595.99  4646.95
                             4653.91  4654.46

 Zero-point correction=                           0.123833 (Hartree/Particle)
 Thermal correction to Energy=                    0.131871
 Thermal correction to Enthalpy=                  0.132815
 Thermal correction to Gibbs Free Energy=         0.090568
 Sum of electronic and zero-point Energies=           -806.283403
 Sum of electronic and thermal Energies=              -806.275366
 Sum of electronic and thermal Enthalpies=            -806.274422
 Sum of electronic and thermal Free Energies=         -806.316668

                     E (Thermal)             CV                S
                      KCal/Mol        Cal/Mol-Kelvin    Cal/Mol-Kelvin
 Total                   82.750             30.172             88.916
 Electronic               0.000              0.000              0.000
 Translational            0.889              2.981             40.764
 Rotational               0.889              2.981             29.674
 Vibrational             80.973             24.210             18.478
 Vibration     1          0.600              1.962              3.852
 Vibration     2          0.634              1.851              2.208
 Vibration     3          0.640              1.834              2.095
 Vibration     4          0.645              1.819              2.004
 Vibration     5          0.680              1.712              1.538
 Vibration     6          0.698              1.659              1.374
 Vibration     7          0.769              1.461              0.948
 Vibration     8          0.813              1.351              0.782
 Vibration     9          0.827              1.317              0.738
 Vibration    10          0.935              1.078              0.488
 Vibration    11          0.944              1.060              0.473

 Optimization completed.
    -- Stationary point found.
 Normal termination of Gaussian 16 at Tue Sep 17 09:51:41 2024.

 ----------------------------------------------------------------------
 #p M062X/def2tzvp geom=check guess=read scf(xqc,tight) integral(grid=u
 ltrafine) scrf(SMD, solvent=1,4-Dioxane) polar prop=efg volume
 ----------------------------------------------------------------------

 ---
 spe
 ---
 Structure from the checkpoint file:  "smiles_00125_conf_1.chk"
 Charge =  0 Multiplicity = 1

 SCF Done:  E(RM062X) =  -806.360066414     A.U. after   12 cycles

  Exact polarizability:     152.723       2.446     116.650       0.007       0.004      65.192
 Approx polarizability:     153.309       2.311     135.296       0.006       0.005      78.925

 Normal termination of Gaussian 16 at Tue Sep 17 10:11:51 2024.
 Gaussian 16:  ES64L-G16RevC.02  7-Dec-2021

 ----------------------------------------------------------------------
 #p M062X/def2tzvp geom=check guess=read scf(xqc,tight) integral(grid=u
 ltrafine) scrf(SMD, solvent=1,4-Dioxane) nmr=giao
 ----------------------------------------------------------------------

 ---
 spe
 ---
 Structure from the checkpoint file:  "smiles_00125_conf_1.chk"
 Charge =  0 Multiplicity = 1

                         Standard orientation:
 ---------------------------------------------------------------------
 Center     Atomic      Atomic             Coordinates (Angstroms)
 Number     Number       Type             X           Y           Z
 ---------------------------------------------------------------------
      1          6           0        3.476223   -0.553989    0.000281
      2          8           0        2.162092   -1.090161    0.000064
      3          6           0        1.116463   -0.217140    0.000061
      4          6           0        1.243517    1.176356    0.000186
      5          6           0        0.091392    1.966043    0.000163
      6          6           0       -1.179043    1.398937    0.000018
      7          6           0       -1.276456    0.005993   -0.000106
      8         17           0       -2.869181   -0.740943   -0.000294
      9          6           0       -0.154643   -0.809222   -0.000087
     10          1           0        3.663076    0.054295   -0.893421
     11          1           0        4.150327   -1.410927    0.000302
     12          1           0        3.662836    0.054153    0.894129
     13          1           0        2.217188    1.648681    0.000296
     14          1           0        0.191377    3.046990    0.000262
     15          1           0       -2.072349    2.010981    0.000002
     16          1           0       -0.237827   -1.888717   -0.000182
 ---------------------------------------------------------------------

 SCF Done:  E(RM062X) =  -806.360066414     A.U. after    1 cycles

      1  C    Isotropic =   129.5937   Anisotropy =    74.1787

      2  O    Isotropic =   221.8335   Anisotropy =    94.0731

      3  C    Isotropic =     1.7232   Anisotropy =   165.5722

      4  C    Isotropic =    59.5974   Anisotropy =   186.0390

      5  C    Isotropic =    32.9622   Anisotropy =   215.8119

      6  C    Isotropic =    44.8120   Anisotropy =   173.2651

      7  C    Isotropic =    20.4426   Anisotropy =   146.6803

      8  Cl   Isotropic =   679.0009   Anisotropy =   513.4673

      9  C    Isotropic =    47.7977   Anisotropy =   149.4485

     10  H    Isotropic =    28.2158   Anisotropy =     8.1554

     11  H    Isotropic =    27.8102   Anisotropy =     8.2755

     12  H    Isotropic =    28.2159   Anisotropy =     8.1552

     13  H    Isotropic =    24.4117   Anisotropy =     8.1500

     14  H    Isotropic =    23.7397   Anisotropy =     5.9892

     15  H    Isotropic =    24.1426   Anisotropy =     8.0102

     16  H    Isotropic =    24.1339   Anisotropy =     9.7000

 The electronic state is 1-A.
 Alpha  occ. eigenvalues -- -102.64437 -19.66219 -10.61486 -10.60868 -10.58939
 Alpha  occ. eigenvalues --  -10.55504 -10.54958 -10.54755 -10.54750  -9.80686
 Alpha  occ. eigenvalues --   -7.52881  -7.52375  -7.52360  -1.19615  -0.99182
 Alpha  occ. eigenvalues --   -0.93327  -0.86347  -0.82897  -0.79275  -0.70225
 Alpha  occ. eigenvalues --   -0.67231  -0.61219  -0.56883  -0.56598  -0.55249
 Alpha  occ. eigenvalues --   -0.51705  -0.49921  -0.48998  -0.47093  -0.44535
 Alpha  occ. eigenvalues --   -0.43390  -0.42201  -0.40155  -0.38327  -0.37788
 Alpha  occ. eigenvalues --   -0.30679  -0.28600
 Alpha virt. eigenvalues --    0.01008   0.02559   0.06352   0.08116   0.10525
 Alpha virt. eigenvalues --    0.11566   0.12808   0.13639   0.14122   0.15291
 Alpha virt. eigenvalues --    0.16103   0.16905   0.18254   0.20419   0.23052

 Mulliken charges:
               1
     1  C   -0.309343
     2  O   -0.283907
     3  C    0.297125
     4  C   -0.266321
     5  C   -0.156375
     6  C   -0.216726
     7  C    0.116408
     8  Cl  -0.103400
     9  C   -0.261772
    10  H    0.160407
    11  H    0.165044
    12  H    0.160408
    13  H    0.180906
    14  H    0.166700
    15  H    0.170985
    16  H    0.179859
 Sum of Mulliken charges =  -0.00000

 Dipole moment (field-independent basis, Debye):
    X=              3.2837    Y=              1.7068    Z=              0.0005  Tot=              3.7007
 Quadrupole moment (field-independent basis, Debye-Ang):
   XX=            -52.4060   YY=            -55.8412   ZZ=            -63.0786
   XY=             -0.2735   XZ=              0.0011   YZ=              0.0005

 Normal termination of Gaussian 16 at Tue Sep 17 10:18:05 2024.
