 Gaussian 16, Revision C.02,

 ----------------------------------------------------------------------
 #p B3LYP/gen pseudo=read EmpiricalDispersion=GD3BJ opt freq scf(xqc,ti
 ght) integral(grid=ultrafine)
 ----------------------------------------------------------------------

 ----------------------------------
 opt-freq conformers_unique/conf_ab
 ----------------------------------
 Symbolic Z-matrix:
 Charge =  0 Multiplicity = 1

 SCF Done:  E(RB3LYP) =  -580.080453460     A.U. after   15 cycles
 SCF Done:  E(RB3LYP) =  -580.081964824     A.U. after   12 cycles
 SCF Done:  E(RB3LYP) =  -580.082194137     A.U. after   11 cycles
 SCF Done:  E(RB3LYP) =  -580.082237884     A.U. after   10 cycles
 SCF Done:  E(RB3LYP) =  -580.082266574     A.U. after   10 cycles
 SCF Done:  E(RB3LYP) =  -580.082352023     A.U. after   15 cycles
 SCF Done:  E(RB3LYP) =  -580.082770437     A.U. after   11 cycles
 SCF Done:  E(RB3LYP) =  -580.084455252     A.U. after   14 cycles
 SCF Done:  E(RB3LYP) =  -580.085222155     A.U. after   13 cycles
 SCF Done:  E(RB3LYP) =  -580.086046785     A.U. after   12 cycles
 SCF Done:  E(RB3LYP) =  -580.081447401     A.U. after   13 cycles
 SCF Done:  E(RB3LYP) =  -580.087128699     A.U. after   13 cycles
 SCF Done:  E(RB3LYP) =  -580.087172733     A.U. after   11 cycles
 SCF Done:  E(RB3LYP) =  -580.087180323     A.U. after   10 cycles
 SCF Done:  E(RB3LYP) =  -580.087181269     A.U. after    8 cycles
 Optimization completed.
    -- Stationary point found.
 Normal termination of Gaussian 16 at Tue Sep 17 09:47:37 2024.

 ------------------------------------------------------------------
 #P Geom=AllCheck Guess=TCheck SCRF=Check GenChk RB3LYP/ChkBas Freq
 ------------------------------------------------------------------

 Structure from the checkpoint file:  "smiles_00026_conf_1.chk"
 ----------------------------------
 opt-freq conformers_unique/conf_ab
 ----------------------------------
 Charge =  0 Multiplicity = 1

 SCF Done:  E(RB3LYP) =  -580.087181269     A.U. after    1 cycles

                      1                      2                      3
                      A                      A                      A
 Frequencies --     54.4032               104.5149               124.4142
 Red. masses --     17.4419                 4.6222                23.5727
 Frc consts  --      0.0304                 0.0297                 0.2150
 IR Inten    --      0.0014                 0.0973                 0.2871

                      4                      5                      6
                      A                      A                      A
 Frequencies --    163.6835               227.6222               261.8928
 Red. masses --      7.1623                12.6886                 7.8146
 Frc consts  --      0.1131                 0.3873                 0.3158
 IR Inten    --      0.3506                 0.8618                 0.1770

                      7                      8                      9
                      A                      A                      A
 Frequencies --    334.7855               370.7701               419.5400
 Red. masses --      6.0220                 9.6144                 9.5673
 Frc consts  --      0.3977                 0.7787                 0.9922
 IR Inten    --      0.3280                 6.3414                 1.5040

                     10                     11                     12
                      A                      A                      A
 Frequencies --    449.8855               502.9939               575.6761
 Red. masses --      3.8653                 7.2118                12.7093
 Frc consts  --      0.4609                 1.0750                 2.4816
 IR Inten    --      2.9400                 2.4792                 0.3180

                     13                     14                     15
                      A                      A                      A
 Frequencies --    599.9477               649.8537               677.5453
 Red. masses --      5.3371                 7.0309                 9.0088
 Frc consts  --      1.1318                 1.7494                 2.4366
 IR Inten    --      3.1302                12.1298                20.8062

                     16                     17                     18
                      A                      A                      A
 Frequencies --    736.5451               780.3364               782.9490
 Red. masses --      3.4402                 1.3762                 9.9460
 Frc consts  --      1.0996                 0.4937                 3.5922
 IR Inten    --      3.9100                44.2126                 2.4381

                     19                     20                     21
                      A                      A                      A
 Frequencies --    890.0283               969.5368              1003.6869
 Red. masses --      1.3321                 1.3562                 1.2977
 Frc consts  --      0.6217                 0.7511                 0.7702
 IR Inten    --      0.7366                 2.9669                 0.0204

                     22                     23                     24
                      A                      A                      A
 Frequencies --   1018.6288              1068.5540              1112.6954
 Red. masses --      7.9590                 4.0237                 2.4110
 Frc consts  --      4.8656                 2.7069                 1.7587
 IR Inten    --     57.8862                26.4527                46.9195

                     25                     26                     27
                      A                      A                      A
 Frequencies --   1142.0808              1196.2832              1206.8571
 Red. masses --      2.0064                 1.1171                12.8349
 Frc consts  --      1.5420                 0.9419                11.0142
 IR Inten    --     32.1232                 3.0574               257.5192

                     28                     29                     30
                      A                      A                      A
 Frequencies --   1219.2646              1295.0144              1332.7770
 Red. masses --      3.9323                 1.6706                 3.6063
 Frc consts  --      3.4442                 1.6507                 3.7742
 IR Inten    --    135.4104                45.6967               186.0138

                     31                     32                     33
                      A                      A                      A
 Frequencies --   1345.6126              1476.6175              1513.2080
 Red. masses --      7.6375                 2.2014                 2.5750
 Frc consts  --      8.1478                 2.8280                 3.4740
 IR Inten    --     77.3919                41.4610                13.5359

                     34                     35                     36
                      A                      A                      A
 Frequencies --   1626.5216              1648.6027              3197.1233
 Red. masses --      5.7884                 6.0864                 1.0870
 Frc consts  --      9.0225                 9.7463                 6.5462
 IR Inten    --     19.9831                24.4767                 2.7510

                     37                     38                     39
                      A                      A                      A
 Frequencies --   3213.0620              3225.7645              3239.6196
 Red. masses --      1.0927                 1.0948                 1.0929
 Frc consts  --      6.6461                 6.7117                 6.7582
 IR Inten    --      8.7756                 5.0207                 2.2882

 - Thermochemistry -
 -------------------
 Temperature   298.150 Kelvin.  Pressure   1.00000 Atm.
 Atom     1 has atomic number  9 and mass  18.99840

 Molecular mass:   271.92691 amu.
 Principal axes and moments of inertia in atomic units:
                           1         2         3
     Eigenvalues --  1936.437243091.649494706.86598
           X            0.99669   0.08125  -0.00000
           Y           -0.08125   0.99669   0.00000
           Z            0.00000  -0.00000   1.00000
 This molecule is an asymmetric top.
 Rotational symmetry number  1.
 Warning -- assumption of classical behavior for rotation
           may cause significant error
 Rotational temperatures (Kelvin)      0.04473     0.02802     0.01840
 Rotational constants (GHZ):           0.93199     0.58375     0.38343
 Zero-point vibrational energy     249773.7 (Joules/Mol)
                                   59.69734 (Kcal/Mol)
 Warning -- explicit consideration of  13 degrees of freedom as
           vibrations may cause significant error
 Vibrational temperatures:     78.27   150.37   179.00   235.50   327.50
          (Kelvin)            376.81   481.68   533.46   603.62   647.28
                              723.70   828.27   863.19   934.99   974.84
                             1059.72  1122.73  1126.49  1280.55  1394.95
                             1444.08  1465.58  1537.41  1600.92  1643.20
                             1721.18  1736.40  1754.25  1863.24  1917.57
                             1936.04  2124.52  2177.17  2340.20  2371.97
                             4599.95  4622.88  4641.16  4661.09

 Zero-point correction=                           0.095134 (Hartree/Particle)
 Thermal correction to Energy=                    0.104502
 Thermal correction to Enthalpy=                  0.105447
 Thermal correction to Gibbs Free Energy=         0.058232
 Sum of electronic and zero-point Energies=           -579.992047
 Sum of electronic and thermal Energies=              -579.982679
 Sum of electronic and thermal Enthalpies=            -579.981735
 Sum of electronic and thermal Free Energies=         -580.028949

                     E (Thermal)             CV                S
                      KCal/Mol        Cal/Mol-Kelvin    Cal/Mol-Kelvin
 Total                   65.576             34.186             99.372
 Electronic               0.000              0.000              0.000
 Translational            0.889              2.981             42.700
 Rotational               0.889              2.981             31.711
 Vibrational             63.799             28.225             24.961
 Vibration     1          0.596              1.976              4.651
 Vibration     2          0.605              1.946              3.368
 Vibration     3          0.610              1.929              3.031
 Vibration     4          0.623              1.887              2.507
 Vibration     5          0.651              1.799              1.898
 Vibration     6          0.669              1.743              1.649
 Vibration     7          0.716              1.606              1.237
 Vibration     8          0.743              1.532              1.077
 Vibration     9          0.782              1.428              0.894
 Vibration    10          0.809              1.361              0.796
 Vibration    11          0.858              1.243              0.651
 Vibration    12          0.932              1.084              0.493
 Vibration    13          0.958              1.032              0.450

 Optimization completed.
    -- Stationary point found.
 Normal termination of Gaussian 16 at Tue Sep 17 09:48:14 2024.

 ----------------------------------------------------------------------
 #p M062X/def2tzvp geom=check guess=read scf(xqc,tight) integral(grid=u
 ltrafine) scrf(SMD, solvent=1,4-Dioxane) polar prop=efg volume
 ----------------------------------------------------------------------

 ---
 spe
 ---
 Structure from the checkpoint file:  "smiles_00026_conf_1.chk"
 Charge =  0 Multiplicity = 1

 SCF Done:  E(RM062X) =  -866.344563336     A.U. after   22 cycles

  Exact polarizability:     169.809      16.413     137.476      -0.001      -0.001      75.892
 Approx polarizability:     182.075      12.122     154.204      -0.001      -0.003      97.034

 1\1\GINC-HPC-34-31\SP\RM062X\def2TZVP\C7H4F3I1\MANTIND\17-Sep-2024\0\\
 #p M062X/def2tzvp geom=check guess=read scf(xqc,tight) integral(grid=u
 ltrafine) scrf(SMD, solvent=1,4-Dioxane) polar prop=efg volume\\spe\\0
 ,1\F,0,0.3638707607,-1.9666002528,-1.1123070884\C,0,1.3527930883,-1.49
 59380342,-0.3259096006\F,0,2.5063640194,-2.0344417954,-0.7817691778\F,
 0,1.1557842466,-1.9860145603,0.9143046361\C,0,1.4102370846,0.015343692
 5,-0.3337733925\C,0,2.5835216795,0.6298929316,-0.7872810227\C,0,2.7034
 805873,2.016210905,-0.8210496071\C,0,1.640322538,2.8094607366,-0.39742

 Normal termination of Gaussian 16 at Tue Sep 17 10:21:45 2024.
 Gaussian 16:  ES64L-G16RevC.02  7-Dec-2021

 ----------------------------------------------------------------------
 #p M062X/def2tzvp geom=check guess=read scf(xqc,tight) integral(grid=u
 ltrafine) scrf(SMD, solvent=1,4-Dioxane) nmr=giao
 ----------------------------------------------------------------------

 ---
 spe
 ---
 Structure from the checkpoint file:  "smiles_00026_conf_1.chk"
 Charge =  0 Multiplicity = 1

                         Standard orientation:
 ---------------------------------------------------------------------
 Center     Atomic      Atomic             Coordinates (Angstroms)
 Number     Number       Type             X           Y           Z
 ---------------------------------------------------------------------
      1          9           0        0.551258   -1.990090   -1.088379
      2          6           0        1.195429   -1.522931    0.000068
      3          9           0        2.424412   -2.086952    0.000678
      4          9           0        0.550268   -1.990131    1.087548
      5          6           0        1.282988   -0.013075    0.000234
      6          6           0        2.553283    0.575388   -0.000039
      7          6           0        2.705904    1.958904   -0.000106
      8          6           0        1.578104    2.775651   -0.000055
      9          6           0        0.304267    2.207853    0.000052
     10          6           0        0.155472    0.820777    0.000020
     11         53           0       -1.860685    0.089939    0.000002
     12          1           0        3.422966   -0.069444    0.000095
     13          1           0        3.700528    2.392159   -0.000142
     14          1           0        1.679955    3.856414    0.000011
     15          1           0       -0.573257    2.843261    0.000239
 ---------------------------------------------------------------------

 SCF Done:  E(RM062X) =  -866.344563336     A.U. after    1 cycles

      1  F    Isotropic =   238.5243   Anisotropy =   137.8360

      2  C    Isotropic =    51.1555   Anisotropy =    17.4936

      3  F    Isotropic =   251.8372   Anisotropy =   130.8828

      4  F    Isotropic =   238.6446   Anisotropy =   137.4573

      5  C    Isotropic =    27.4336   Anisotropy =   178.1376

      6  C    Isotropic =    33.8460   Anisotropy =   216.4903

      7  C    Isotropic =    34.4991   Anisotropy =   219.4469

      8  C    Isotropic =    29.5053   Anisotropy =   218.4529

      9  C    Isotropic =    22.2792   Anisotropy =   184.1507

     10  C    Isotropic =    27.5838   Anisotropy =   160.4295

     11  I    Isotropic =   432.1231   Anisotropy =    72.5739

     12  H    Isotropic =    23.1473   Anisotropy =    10.4674

     13  H    Isotropic =    23.5076   Anisotropy =     5.7171

     14  H    Isotropic =    23.5712   Anisotropy =     6.0655

     15  H    Isotropic =    23.2523   Anisotropy =    13.4582

 The electronic state is 1-A.
 Alpha  occ. eigenvalues --  -25.28495 -25.28263 -25.28256 -10.80719 -10.61760
 Alpha  occ. eigenvalues --  -10.59061 -10.57109 -10.56938 -10.56719 -10.56341
 Alpha  occ. eigenvalues --   -7.11153  -5.10545  -5.09438  -5.09415  -2.07364
 Alpha  occ. eigenvalues --   -2.06920  -2.06909  -2.05982  -2.05980  -1.46615
 Alpha  occ. eigenvalues --   -1.37634  -1.37546  -0.99503  -0.90048  -0.87755
 Alpha  occ. eigenvalues --   -0.81745  -0.78342  -0.72999  -0.71365  -0.69431
 Alpha  occ. eigenvalues --   -0.68510  -0.65501  -0.58420  -0.57922  -0.57863
 Alpha  occ. eigenvalues --   -0.55216  -0.53906  -0.53819  -0.52433  -0.51900
 Alpha  occ. eigenvalues --   -0.49264  -0.47717  -0.47041  -0.43396  -0.40155
 Alpha  occ. eigenvalues --   -0.36448  -0.33755  -0.32656  -0.30321
 Alpha virt. eigenvalues --   -0.01543  -0.01306  -0.00382   0.08742   0.10496
 Alpha virt. eigenvalues --    0.11924   0.13077   0.14094   0.14577   0.15684
 Alpha virt. eigenvalues --    0.17327   0.17884   0.18848   0.18923   0.20292

 Mulliken charges:
               1
     1  F   -0.176531
     2  C    0.530875
     3  F   -0.186035
     4  F   -0.176382
     5  C   -0.063361
     6  C   -0.141518
     7  C   -0.153838
     8  C   -0.138882
     9  C   -0.173114
    10  C    0.021323
    11  I   -0.060710
    12  H    0.185868
    13  H    0.172694
    14  H    0.173720
    15  H    0.185890
 Sum of Mulliken charges =  -0.00000

 Dipole moment (field-independent basis, Debye):
    X=              1.6692    Y=              3.6566    Z=              0.0014  Tot=              4.0196
 Quadrupole moment (field-independent basis, Debye-Ang):
   XX=            -73.1244   YY=            -77.0566   ZZ=            -86.3228
   XY=              5.7922   XZ=              0.0005   YZ=             -0.0018

 1\1\GINC-HPC-34-31\SP\RM062X\def2TZVP\C7H4F3I1\MANTIND\17-Sep-2024\0\\
 #p M062X/def2tzvp geom=check guess=read scf(xqc,tight) integral(grid=u
 ltrafine) scrf(SMD, solvent=1,4-Dioxane) nmr=giao\\spe\\0,1\F,0,0.3638
 707607,-1.9666002528,-1.1123070884\C,0,1.3527930883,-1.4959380342,-0.3
 259096006\F,0,2.5063640194,-2.0344417954,-0.7817691778\F,0,1.155784246
 6,-1.9860145603,0.9143046361\C,0,1.4102370846,0.0153436925,-0.33377339
 25\C,0,2.5835216795,0.6298929316,-0.7872810227\C,0,2.7034805873,2.0162
 10905,-0.8210496071\C,0,1.640322538,2.8094607366,-0.3974256597\C,0,0.4

 Normal termination of Gaussian 16 at Tue Sep 17 10:31:06 2024.
