 Gaussian 16, Revision C.02,

 ----------------------------------------------------------------------
 #p B3LYP/6-31G(d,p) EmpiricalDispersion=GD3BJ opt freq scf(xqc,tight)
 integral(grid=ultrafine)
 ----------------------------------------------------------------------

 ----------------------------------
 opt-freq conformers_unique/conf_ag
 ----------------------------------
 Symbolic Z-matrix:
 Charge =  0 Multiplicity = 1

 SCF Done:  E(RB3LYP) =  -3157.29594670     A.U. after   14 cycles
 SCF Done:  E(RB3LYP) =  -3157.29844450     A.U. after   11 cycles
 SCF Done:  E(RB3LYP) =  -3157.29868312     A.U. after   10 cycles
 SCF Done:  E(RB3LYP) =  -3157.29873319     A.U. after   10 cycles
 SCF Done:  E(RB3LYP) =  -3157.29875843     A.U. after    9 cycles
 SCF Done:  E(RB3LYP) =  -3157.29878036     A.U. after    9 cycles
 SCF Done:  E(RB3LYP) =  -3157.29888540     A.U. after   11 cycles
 SCF Done:  E(RB3LYP) =  -3157.28559318     A.U. after   14 cycles
 SCF Done:  E(RB3LYP) =  -3157.29991390     A.U. after   12 cycles
 SCF Done:  E(RB3LYP) =  -3157.29855876     A.U. after   12 cycles
 SCF Done:  E(RB3LYP) =  -3157.30040360     A.U. after   10 cycles
 SCF Done:  E(RB3LYP) =  -3157.30061832     A.U. after   11 cycles
 SCF Done:  E(RB3LYP) =  -3157.29657357     A.U. after   14 cycles
 SCF Done:  E(RB3LYP) =  -3157.30067477     A.U. after   11 cycles
 SCF Done:  E(RB3LYP) =  -3157.30086188     A.U. after   11 cycles
 SCF Done:  E(RB3LYP) =  -3157.30090676     A.U. after   10 cycles
 SCF Done:  E(RB3LYP) =  -3157.30091167     A.U. after    8 cycles
 SCF Done:  E(RB3LYP) =  -3157.30091196     A.U. after    6 cycles
 Optimization completed.
    -- Stationary point found.
 Normal termination of Gaussian 16 at Tue Sep 17 10:01:23 2024.

 ----------------------------------------------------------------------
 #P Geom=AllCheck Guess=TCheck SCRF=Check GenChk RB3LYP/6-31G(d,p) Freq
 ----------------------------------------------------------------------

 Structure from the checkpoint file:  "smiles_00105_conf_6.chk"
 ----------------------------------
 opt-freq conformers_unique/conf_ag
 ----------------------------------
 Charge =  0 Multiplicity = 1

 SCF Done:  E(RB3LYP) =  -3157.30091196     A.U. after    1 cycles

 The electronic state is 1-A.
 Alpha  occ. eigenvalues -- -482.90738 -61.86813 -56.38791 -56.38416 -56.38406
 Alpha  occ. eigenvalues --  -10.23419 -10.20033 -10.19997 -10.19484 -10.19232
 Alpha  occ. eigenvalues --  -10.19227 -10.19132 -10.18391 -10.18371 -10.17635
 Alpha  occ. eigenvalues --  -10.17624 -10.17521 -10.17492 -10.17063 -10.17055
 Alpha  occ. eigenvalues --   -8.57726  -6.53023  -6.51827  -6.51780  -2.64596
 Alpha  occ. eigenvalues --   -2.64261  -2.64226  -2.63271  -2.63271  -0.87479
 Alpha  occ. eigenvalues --   -0.81905  -0.81356  -0.77927  -0.77198  -0.72437
 Alpha  occ. eigenvalues --   -0.70527  -0.68386  -0.68266  -0.68084  -0.63101
 Alpha  occ. eigenvalues --   -0.60654  -0.59687  -0.55042  -0.53922  -0.49342
 Alpha  occ. eigenvalues --   -0.48384  -0.45396  -0.45065  -0.43798  -0.43494
 Alpha  occ. eigenvalues --   -0.43260  -0.42664  -0.41567  -0.40678  -0.39602
 Alpha  occ. eigenvalues --   -0.38833  -0.38590  -0.38211  -0.37149  -0.36750
 Alpha  occ. eigenvalues --   -0.36671  -0.35721  -0.34539  -0.34175  -0.34132
 Alpha  occ. eigenvalues --   -0.33786  -0.32860  -0.32599  -0.31827  -0.31093
 Alpha  occ. eigenvalues --   -0.29458  -0.27436  -0.23961  -0.22681
 Alpha virt. eigenvalues --   -0.00414  -0.00042   0.01604   0.08607   0.09888
 Alpha virt. eigenvalues --    0.10101   0.11899   0.12314   0.13566   0.14447
 Alpha virt. eigenvalues --    0.14785   0.14978   0.15122   0.15617   0.15885

 Mulliken charges:
               1
     1  C   -0.303310
     2  C   -0.129141
     3  C   -0.303382
     4  C    0.154529
     5  C   -0.187553
     6  C    0.139188
     7  C   -0.123130
     8  C   -0.302361
     9  C   -0.318589
    10  C   -0.056511
    11  Br  -0.141984
    12  C    0.133731
    13  C   -0.122296
    14  C   -0.302297
    15  C   -0.319116
    16  C   -0.169683
    17  H    0.099972
    18  H    0.102834
    19  H    0.107822
    20  H    0.087823
    21  H    0.107797
    22  H    0.102074
    23  H    0.100085
    24  H    0.076034
    25  H    0.114298
    26  H    0.100973
    27  H    0.117948
    28  H    0.099291
    29  H    0.102804
    30  H    0.108000
    31  H    0.101751
    32  H    0.114291
    33  H    0.118028
    34  H    0.099324
    35  H    0.100876
    36  H    0.102126
    37  H    0.101889
    38  H    0.108220
    39  H    0.077648
 Sum of Mulliken charges =  -0.00000

 Dipole moment (field-independent basis, Debye):
    X=              1.4665    Y=             -0.3379    Z=              0.0900  Tot=              1.5076
 Quadrupole moment (field-independent basis, Debye-Ang):
   XX=           -109.8449   YY=           -106.5963   ZZ=           -114.4730
   XY=              0.5390   XZ=              0.1792   YZ=             -0.0886

  Exact polarizability:     212.932       0.170     196.912      -0.611       0.073     122.489
 Approx polarizability:     314.733      -5.986     285.478       5.902      -1.639     182.994

                      1                      2                      3
                      A                      A                      A
 Frequencies --     29.4724                43.1952                81.2067
 Red. masses --      2.8329                 3.6526                 2.9525
 Frc consts  --      0.0014                 0.0040                 0.0115
 IR Inten    --      0.0026                 0.0570                 0.4267

                      4                      5                      6
                      A                      A                      A
 Frequencies --     89.0001               101.6550               133.1450
 Red. masses --      2.5777                 3.4088                 2.9867
 Frc consts  --      0.0120                 0.0208                 0.0312
 IR Inten    --      0.0041                 0.0249                 0.0974

                      7                      8                      9
                      A                      A                      A
 Frequencies --    150.9027               159.1564               177.9328
 Red. masses --      3.4171                 3.1451                 5.8923
 Frc consts  --      0.0458                 0.0469                 0.1099
 IR Inten    --      0.0098                 0.3582                 0.2755

                     10                     11                     12
                      A                      A                      A
 Frequencies --    193.7980               229.9545               237.5765
 Red. masses --      3.2730                 3.8192                 1.0885
 Frc consts  --      0.0724                 0.1190                 0.0362
 IR Inten    --      0.0628                 0.7692                 0.0082

                     13                     14                     15
                      A                      A                      A
 Frequencies --    252.3332               257.1860               259.2706
 Red. masses --      1.1654                 1.1428                 1.0546
 Frc consts  --      0.0437                 0.0445                 0.0418
 IR Inten    --      0.0931                 0.1263                 0.0633

                     16                     17                     18
                      A                      A                      A
 Frequencies --    278.8243               286.7947               292.9264
 Red. masses --      1.6390                 1.0496                 1.3112
 Frc consts  --      0.0751                 0.0509                 0.0663
 IR Inten    --      0.0378                 0.1791                 0.1486

                     19                     20                     21
                      A                      A                      A
 Frequencies --    311.5091               333.7998               349.1744
 Red. masses --      3.1382                 2.9810                 2.7531
 Frc consts  --      0.1794                 0.1957                 0.1978
 IR Inten    --      0.0130                 1.4694                 0.8068

                     22                     23                     24
                      A                      A                      A
 Frequencies --    378.3023               386.8787               405.1728
 Red. masses --      3.5599                 2.5012                 4.1416
 Frc consts  --      0.3002                 0.2206                 0.4006
 IR Inten    --      0.5630                 0.1197                 1.8754

                     25                     26                     27
                      A                      A                      A
 Frequencies --    440.4917               480.4523               525.0128
 Red. masses --      2.4854                 2.8222                 4.3885
 Frc consts  --      0.2841                 0.3838                 0.7127
 IR Inten    --      0.0161                 0.1884                 2.1104

                     28                     29                     30
                      A                      A                      A
 Frequencies --    571.0704               608.8755               627.1214
 Red. masses --      3.0599                 3.3518                 3.1083
 Frc consts  --      0.5880                 0.7321                 0.7202
 IR Inten    --      0.3639                 6.7184                 3.9233

                     31                     32                     33
                      A                      A                      A
 Frequencies --    646.2716               664.4611               771.3326
 Red. masses --      3.7404                 3.7217                 3.4416
 Frc consts  --      0.9205                 0.9681                 1.2064
 IR Inten    --      0.3857                 2.4667                 2.2344

                     34                     35                     36
                      A                      A                      A
 Frequencies --    830.3269               851.1282               896.0508
 Red. masses --      3.6500                 3.1474                 2.4412
 Frc consts  --      1.4826                 1.3433                 1.1548
 IR Inten    --      0.4948                 0.6786                 0.1078

                     37                     38                     39
                      A                      A                      A
 Frequencies --    906.3497               910.9046               937.3821
 Red. masses --      1.6102                 1.3784                 1.1800
 Frc consts  --      0.7793                 0.6739                 0.6109
 IR Inten    --     11.5433                 0.9194                 0.7976

                     40                     41                     42
                      A                      A                      A
 Frequencies --    940.9716               942.4660               956.4840
 Red. masses --      1.2914                 1.1871                 2.0899
 Frc consts  --      0.6737                 0.6213                 1.1265
 IR Inten    --      0.0963                 1.9426                 4.1652

                     43                     44                     45
                      A                      A                      A
 Frequencies --    960.8528               969.7364               977.8719
 Red. masses --      2.1349                 1.4961                 1.4767
 Frc consts  --      1.1613                 0.8290                 0.8320
 IR Inten    --      7.6656                 0.0898                 0.0624

                     46                     47                     48
                      A                      A                      A
 Frequencies --    981.0440              1034.5056              1085.9480
 Red. masses --      1.5412                 7.5941                 1.5317
 Frc consts  --      0.8740                 4.7885                 1.0642
 IR Inten    --      4.6476                47.5533                12.2528

                     49                     50                     51
                      A                      A                      A
 Frequencies --   1103.0256              1129.9963              1130.8377
 Red. masses --      1.6153                 2.2754                 1.6976
 Frc consts  --      1.1579                 1.7119                 1.2791
 IR Inten    --      2.8608                 1.2644                 9.1216

                     52                     53                     54
                      A                      A                      A
 Frequencies --   1133.0889              1142.3275              1174.3457
 Red. masses --      2.2489                 2.1834                 1.7801
 Frc consts  --      1.7012                 1.6787                 1.4464
 IR Inten    --      0.8189                 7.5328                 2.1284

                     55                     56                     57
                      A                      A                      A
 Frequencies --   1189.5656              1208.1859              1225.7994
 Red. masses --      1.9132                 1.9209                 1.6042
 Frc consts  --      1.5951                 1.6521                 1.4202
 IR Inten    --      2.5095                11.0428                 1.0910

                     58                     59                     60
                      A                      A                      A
 Frequencies --   1283.8539              1302.7626              1316.6768
 Red. masses --      1.5203                 2.3849                 4.1135
 Frc consts  --      1.4764                 2.3848                 4.2016
 IR Inten    --      9.4400                 1.2010                 1.6160

                     61                     62                     63
                      A                      A                      A
 Frequencies --   1342.2503              1344.0729              1352.7181
 Red. masses --      1.4033                 1.3880                 1.3267
 Frc consts  --      1.4896                 1.4774                 1.4303
 IR Inten    --      5.3721                 1.3159                 2.4621

                     64                     65                     66
                      A                      A                      A
 Frequencies --   1360.5712              1380.0547              1394.6505
 Red. masses --      1.5862                 1.9175                 1.5707
 Frc consts  --      1.7301                 2.1517                 1.8001
 IR Inten    --     14.4474                 4.2810                 6.1518

                     67                     68                     69
                      A                      A                      A
 Frequencies --   1409.9892              1410.7180              1412.5800
 Red. masses --      1.2474                 1.2448                 1.2338
 Frc consts  --      1.4611                 1.4596                 1.4506
 IR Inten    --      6.9056                 0.9979                 3.6600

                     70                     71                     72
                      A                      A                      A
 Frequencies --   1430.9583              1432.2896              1433.5842
 Red. masses --      1.2456                 1.2374                 1.2318
 Frc consts  --      1.5027                 1.4956                 1.4915
 IR Inten    --      2.2136                 6.1596                 0.4661

                     73                     74                     75
                      A                      A                      A
 Frequencies --   1472.2215              1474.9852              1501.2608
 Red. masses --      2.5195                 2.4907                 1.0439
 Frc consts  --      3.2175                 3.1926                 1.3862
 IR Inten    --     19.9062                21.1268                 0.1023

                     76                     77                     78
                      A                      A                      A
 Frequencies --   1503.1911              1504.2142              1505.1530
 Red. masses --      1.0439                 1.0457                 1.0479
 Frc consts  --      1.3898                 1.3940                 1.3987
 IR Inten    --      3.3562                 3.2458                 0.8889

                     79                     80                     81
                      A                      A                      A
 Frequencies --   1507.7518              1508.6844              1516.9137
 Red. masses --      1.0617                 1.0939                 1.0490
 Frc consts  --      1.4221                 1.4670                 1.4221
 IR Inten    --      0.2449                 3.5957                 7.2514

                     82                     83                     84
                      A                      A                      A
 Frequencies --   1523.1628              1523.4548              1524.1465
 Red. masses --      1.0479                 1.0520                 1.0701
 Frc consts  --      1.4325                 1.4386                 1.4647
 IR Inten    --     11.5553                 2.3798                 4.0908

                     85                     86                     87
                      A                      A                      A
 Frequencies --   1528.1404              1529.4348              1629.1359
 Red. masses --      1.0570                 1.0604                 7.4910
 Frc consts  --      1.4543                 1.4614                11.7140
 IR Inten    --      2.4995                 5.0306                 7.6825

                     88                     89                     90
                      A                      A                      A
 Frequencies --   1646.8534              3034.0837              3040.1567
 Red. masses --      5.1632                 1.0843                 1.0347
 Frc consts  --      8.2504                 5.8812                 5.6346
 IR Inten    --      4.1869                15.2551                22.0307

                     91                     92                     93
                      A                      A                      A
 Frequencies --   3041.4433              3041.6724              3044.0628
 Red. masses --      1.0356                 1.0356                 1.0356
 Frc consts  --      5.6441                 5.6448                 5.6537
 IR Inten    --     12.0841                36.9883                28.0828

                     94                     95                     96
                      A                      A                      A
 Frequencies --   3044.9504              3045.3333              3058.9905
 Red. masses --      1.0383                 1.0383                 1.0811
 Frc consts  --      5.6720                 5.6734                 5.9603
 IR Inten    --     51.2540                 8.7598                 5.5376

                     97                     98                     99
                      A                      A                      A
 Frequencies --   3059.4739              3108.8358              3108.9330
 Red. masses --      1.0813                 1.1026                 1.1023
 Frc consts  --      5.9632                 6.2785                 6.2773
 IR Inten    --      6.4163                 0.0070                 2.0430

                    100                    101                    102
                      A                      A                      A
 Frequencies --   3109.2067              3114.8519              3115.6886
 Red. masses --      1.1024                 1.1017                 1.1014
 Frc consts  --      6.2790                 6.2980                 6.2997
 IR Inten    --      2.3742               104.9651                19.4060

                    103                    104                    105
                      A                      A                      A
 Frequencies --   3116.1485              3121.1600              3122.6143
 Red. masses --      1.1013                 1.1029                 1.1032
 Frc consts  --      6.3008                 6.3301                 6.3376
 IR Inten    --     81.6490                19.6031                33.2013

                    106                    107                    108
                      A                      A                      A
 Frequencies --   3122.7527              3122.8805              3137.7803
 Red. masses --      1.1030                 1.1026                 1.1010
 Frc consts  --      6.3373                 6.3356                 6.3866
 IR Inten    --     45.7275                14.4804                29.7215

                    109                    110                    111
                      A                      A                      A
 Frequencies --   3137.8906              3199.0031              3206.4007
 Red. masses --      1.1010                 1.0887                 1.0883
 Frc consts  --      6.3873                 6.5646                 6.5925
 IR Inten    --      5.9707                10.0781                 9.6273

 - Thermochemistry -
 -------------------
 Temperature   298.150 Kelvin.  Pressure   1.00000 Atm.
 Atom     1 has atomic number  6 and mass  12.00000

 Molecular mass:   282.09831 amu.
 Principal axes and moments of inertia in atomic units:
                           1         2         3
     Eigenvalues --  3833.581485638.706498503.00712
           X            0.99828   0.05778  -0.01012
           Y           -0.05775   0.99833   0.00303
           Z            0.01027  -0.00244   0.99994
 This molecule is an asymmetric top.
 Rotational symmetry number  1.
 Warning -- assumption of classical behavior for rotation
           may cause significant error
 Rotational temperatures (Kelvin)      0.02259     0.01536     0.01019
 Rotational constants (GHZ):           0.47077     0.32006     0.21225
 Zero-point vibrational energy     906973.9 (Joules/Mol)
                                  216.77197 (Kcal/Mol)
 Warning -- explicit consideration of  29 degrees of freedom as
           vibrations may cause significant error
 Vibrational temperatures:     42.40    62.15   116.84   128.05   146.26
          (Kelvin)            191.57   217.12   228.99   256.01   278.83
                              330.85   341.82   363.05   370.03   373.03
                              401.17   412.63   421.46   448.19   480.26
                              502.38   544.29   556.63   582.95   633.77
                              691.26   755.38   821.64   876.04   902.29
                              929.84   956.01  1109.78  1194.66  1224.58
                             1289.22  1304.03  1310.59  1348.68  1353.85
                             1356.00  1376.17  1382.45  1395.23  1406.94
                             1411.50  1488.42  1562.44  1587.01  1625.81
                             1627.02  1630.26  1643.55  1689.62  1711.52
                             1738.31  1763.65  1847.18  1874.38  1894.40
                             1931.20  1933.82  1946.26  1957.56  1985.59
                             2006.59  2028.66  2029.71  2032.39  2058.83
                             2060.75  2062.61  2118.20  2122.17  2159.98
                             2162.76  2164.23  2165.58  2169.32  2170.66
                             2182.50  2191.49  2191.91  2192.91  2198.65
                             2200.52  2343.96  2369.45  4365.37  4374.11
                             4375.96  4376.29  4379.73  4381.00  4381.56
                             4401.21  4401.90  4472.92  4473.06  4473.45
                             4481.58  4482.78  4483.44  4490.65  4492.75
                             4492.94  4493.13  4514.57  4514.72  4602.65
                             4613.30

 Zero-point correction=                           0.345448 (Hartree/Particle)
 Thermal correction to Energy=                    0.363871
 Thermal correction to Enthalpy=                  0.364815
 Thermal correction to Gibbs Free Energy=         0.299170
 Sum of electronic and zero-point Energies=          -3156.955464
 Sum of electronic and thermal Energies=             -3156.937041
 Sum of electronic and thermal Enthalpies=           -3156.936097
 Sum of electronic and thermal Free Energies=        -3157.001742

                     E (Thermal)             CV                S
                      KCal/Mol        Cal/Mol-Kelvin    Cal/Mol-Kelvin
 Total                  228.332             69.621            138.160
 Electronic               0.000              0.000              0.000
 Translational            0.889              2.981             42.809
 Rotational               0.889              2.981             33.574
 Vibrational            226.555             63.659             61.777
 Vibration     1          0.593              1.984              5.865
 Vibration     2          0.595              1.980              5.107
 Vibration     3          0.600              1.962              3.861
 Vibration     4          0.602              1.957              3.682
 Vibration     5          0.604              1.948              3.422
 Vibration     6          0.613              1.920              2.900
 Vibration     7          0.618              1.902              2.661
 Vibration     8          0.621              1.892              2.560
 Vibration     9          0.628              1.869              2.350
 Vibration    10          0.635              1.848              2.191
 Vibration    11          0.652              1.795              1.879
 Vibration    12          0.656              1.783              1.821
 Vibration    13          0.664              1.759              1.714
 Vibration    14          0.667              1.751              1.681
 Vibration    15          0.668              1.747              1.667
 Vibration    16          0.679              1.713              1.541
 Vibration    17          0.684              1.698              1.493
 Vibration    18          0.688              1.687              1.457
 Vibration    19          0.700              1.652              1.354
 Vibration    20          0.715              1.608              1.242
 Vibration    21          0.726              1.577              1.170
 Vibration    22          0.749              1.516              1.046
 Vibration    23          0.755              1.498              1.012
 Vibration    24          0.770              1.459              0.944
 Vibration    25          0.800              1.382              0.825
 Vibration    26          0.837              1.293              0.709
 Vibration    27          0.880              1.195              0.598
 Vibration    28          0.927              1.094              0.502
 Vibration    29          0.968              1.013              0.435

                           ! Non-Optimized Parameters !
 Normal termination of Gaussian 16 at Tue Sep 17 10:07:35 2024.
 Gaussian 16:  ES64L-G16RevC.02  7-Dec-2021

 ----------------------------------------------------------------------
 #p M062X/def2tzvp geom=check guess=read scf(xqc,tight) integral(grid=u
 ltrafine) scrf(SMD, solvent=1,4-Dioxane) polar prop=efg volume
 ----------------------------------------------------------------------

 ---
 spe
 ---
 Structure from the checkpoint file:  "smiles_00105_conf_6.chk"
 Charge =  0 Multiplicity = 1

                         Standard orientation:
 ---------------------------------------------------------------------
 Center     Atomic      Atomic             Coordinates (Angstroms)
 Number     Number       Type             X           Y           Z
 ---------------------------------------------------------------------
      1          6           0        4.234628   -0.409462   -1.163343
      2          6           0        3.468376   -0.896744    0.077418
      3          6           0        4.103444   -0.354193    1.368205
      4          6           0        1.992469   -0.548059   -0.007191
      5          6           0        1.025291   -1.551076   -0.046046
      6          6           0       -0.343939   -1.269660   -0.124348
      7          6           0       -1.377957   -2.385724   -0.120791
      8          6           0       -1.962795   -2.554754    1.294462
      9          6           0       -0.851958   -3.722459   -0.655086
     10          6           0       -0.709723    0.082860   -0.160536
     11         35           0       -2.588179    0.522952   -0.246274
     12          6           0        0.219884    1.134615   -0.131652
     13          6           0       -0.213526    2.593185   -0.136596
     14          6           0       -0.662567    3.012029    1.276373
     15          6           0        0.849885    3.555786   -0.676558
     16          6           0        1.569923    0.782570   -0.052803
     17          1           0        5.284931   -0.715536   -1.115652
     18          1           0        4.208536    0.682868   -1.237502
     19          1           0        3.798587   -0.816298   -2.080396
     20          1           0        3.540887   -1.991462    0.105170
     21          1           0        3.573357   -0.720417    2.252256
     22          1           0        4.074092    0.740321    1.391118
     23          1           0        5.151925   -0.660967    1.443171
     24          1           0        1.347856   -2.586300   -0.016796
     25          1           0       -2.193213   -2.065197   -0.778489
     26          1           0       -1.181076   -2.865387    1.995864
     27          1           0       -2.392764   -1.616123    1.651188
     28          1           0       -2.749255   -3.316677    1.298444
     29          1           0       -0.118445   -4.173647    0.021463
     30          1           0       -0.384305   -3.609152   -1.637717
     31          1           0       -1.679746   -4.431408   -0.751271
     32          1           0       -1.086462    2.663042   -0.794642
     33          1           0       -1.462948    2.362483    1.637722
     34          1           0       -1.031024    4.043184    1.274434
     35          1           0        0.176572    2.949014    1.977410
     36          1           0        1.706529    3.641077    0.000456
     37          1           0        0.421281    4.557076   -0.780273
     38          1           0        1.220463    3.240327   -1.656507
     39          1           0        2.311877    1.572384   -0.028918
 ---------------------------------------------------------------------

 SCF Done:  E(RM062X) =  -3159.60441640     A.U. after   12 cycles
