 Gaussian 16, Revision C.02,

 ----------------------------------------------------------------------
 #p B3LYP/6-31G(d,p) EmpiricalDispersion=GD3BJ opt freq scf(xqc,tight)
 integral(grid=ultrafine)
 ----------------------------------------------------------------------

 ----------------------------------
 opt-freq conformers_unique/conf_ab
 ----------------------------------
 Symbolic Z-matrix:
 Charge =  0 Multiplicity = 1

 SCF Done:  E(RB3LYP) =  -959.083551313     A.U. after   14 cycles
 SCF Done:  E(RB3LYP) =  -959.085318581     A.U. after   12 cycles
 SCF Done:  E(RB3LYP) =  -959.084880338     A.U. after   13 cycles
 SCF Done:  E(RB3LYP) =  -959.085612563     A.U. after   11 cycles
 SCF Done:  E(RB3LYP) =  -959.085728836     A.U. after   11 cycles
 SCF Done:  E(RB3LYP) =  -959.085900583     A.U. after   12 cycles
 SCF Done:  E(RB3LYP) =  -959.085958353     A.U. after   10 cycles
 SCF Done:  E(RB3LYP) =  -959.086065513     A.U. after   11 cycles
 SCF Done:  E(RB3LYP) =  -959.086086486     A.U. after   11 cycles
 SCF Done:  E(RB3LYP) =  -959.086103640     A.U. after   10 cycles
 SCF Done:  E(RB3LYP) =  -959.086148154     A.U. after   13 cycles
 SCF Done:  E(RB3LYP) =  -959.086166968     A.U. after   10 cycles
 SCF Done:  E(RB3LYP) =  -959.086175585     A.U. after   11 cycles
 SCF Done:  E(RB3LYP) =  -959.086178416     A.U. after   11 cycles
 SCF Done:  E(RB3LYP) =  -959.086179095     A.U. after    8 cycles
 SCF Done:  E(RB3LYP) =  -959.086179133     A.U. after    7 cycles
 Optimization completed.
    -- Stationary point found.
 Normal termination of Gaussian 16 at Tue Sep 17 09:46:35 2024.

 ----------------------------------------------------------------------
 #P Geom=AllCheck Guess=TCheck SCRF=Check GenChk RB3LYP/6-31G(d,p) Freq
 ----------------------------------------------------------------------

 Structure from the checkpoint file:  "smiles_00075_conf_1.chk"
 ----------------------------------
 opt-freq conformers_unique/conf_ab
 ----------------------------------
 Charge =  0 Multiplicity = 1

 SCF Done:  E(RB3LYP) =  -959.086179133     A.U. after    1 cycles

                      1                      2                      3
                      A                      A                      A
 Frequencies --     18.6408                31.4699                69.4814
 Red. masses --      5.2575                 4.1680                 6.4063
 Frc consts  --      0.0011                 0.0024                 0.0182
 IR Inten    --      1.9494                 0.4198                 0.9445

                      4                      5                      6
                      A                      A                      A
 Frequencies --    117.2614               132.4001               192.2263
 Red. masses --      1.6378                 2.0762                 4.8486
 Frc consts  --      0.0133                 0.0214                 0.1056
 IR Inten    --      0.4682                 0.0754                 4.2412

                      7                      8                      9
                      A                      A                      A
 Frequencies --    228.2989               284.1786               313.7436
 Red. masses --      6.6306                 3.6938                 5.2160
 Frc consts  --      0.2036                 0.1758                 0.3025
 IR Inten    --      1.8259                 7.9861                 4.3838

                     10                     11                     12
                      A                      A                      A
 Frequencies --    357.8000               394.6355               420.3061
 Red. masses --      4.3633                 8.1879                 3.0612
 Frc consts  --      0.3291                 0.7513                 0.3186
 IR Inten    --      1.9663                15.0203                 0.0628

                     13                     14                     15
                      A                      A                      A
 Frequencies --    425.1823               506.6322               602.0779
 Red. masses --      2.5190                 3.0959                 5.7151
 Frc consts  --      0.2683                 0.4682                 1.2206
 IR Inten    --      3.8633                10.4987                10.4133

                     16                     17                     18
                      A                      A                      A
 Frequencies --    647.6839               676.5681               709.1849
 Red. masses --      6.7452                 4.6713                 4.3952
 Frc consts  --      1.6671                 1.2598                 1.3024
 IR Inten    --      0.9914                 8.2766                 2.2422

                     19                     20                     21
                      A                      A                      A
 Frequencies --    778.7749               822.7039               842.7186
 Red. masses --      4.5690                 1.7978                 1.2784
 Frc consts  --      1.6326                 0.7169                 0.5349
 IR Inten    --     28.7208                24.6495                 1.8633

                     22                     23                     24
                      A                      A                      A
 Frequencies --    856.4331               892.6367               957.5614
 Red. masses --      3.4499                 3.2899                 1.5193
 Frc consts  --      1.4909                 1.5445                 0.8208
 IR Inten    --     10.9579                 8.2587                 0.3320

                     25                     26                     27
                      A                      A                      A
 Frequencies --    964.5464               977.0283              1035.0935
 Red. masses --      1.8758                 1.3362                 3.8665
 Frc consts  --      1.0282                 0.7515                 2.4408
 IR Inten    --      1.2696                 0.3487                30.4184

                     28                     29                     30
                      A                      A                      A
 Frequencies --   1048.2110              1112.9955              1135.1864
 Red. masses --      4.9095                 2.9436                 1.3911
 Frc consts  --      3.1782                 2.1484                 1.0562
 IR Inten    --     32.9903                57.6926                12.0332

                     31                     32                     33
                      A                      A                      A
 Frequencies --   1166.9930              1179.6963              1210.6366
 Red. masses --      1.3909                 1.2817                 1.1429
 Frc consts  --      1.1161                 1.0509                 0.9869
 IR Inten    --    106.7437                 1.4509                 1.5859

                     34                     35                     36
                      A                      A                      A
 Frequencies --   1212.1961              1221.9532              1293.0090
 Red. masses --      1.4686                 2.7071                 2.0223
 Frc consts  --      1.2715                 2.3815                 1.9920
 IR Inten    --      3.6611                 3.9669               169.3789

                     37                     38                     39
                      A                      A                      A
 Frequencies --   1325.8207              1332.2578              1368.1130
 Red. masses --      2.0589                 2.0513                 2.4992
 Frc consts  --      2.1323                 2.1452                 2.7561
 IR Inten    --    110.0542                12.2829                68.8607

                     40                     41                     42
                      A                      A                      A
 Frequencies --   1452.3998              1480.6619              1489.0759
 Red. masses --      2.6099                 1.2036                 1.1299
 Frc consts  --      3.2437                 1.5547                 1.4762
 IR Inten    --     11.0047                10.6938                15.3988

                     43                     44                     45
                      A                      A                      A
 Frequencies --   1496.0828              1509.2984              1536.0199
 Red. masses --      1.0465                 1.0506                 2.3500
 Frc consts  --      1.3801                 1.4100                 3.2668
 IR Inten    --      6.5902                 7.9985                66.9916

                     46                     47                     48
                      A                      A                      A
 Frequencies --   1632.4061              1655.3169              1821.4626
 Red. masses --      6.8820                 5.7611                10.9212
 Frc consts  --     10.8050                 9.3008                21.3482
 IR Inten    --      0.6978                 5.2416               187.2433

                     49                     50                     51
                      A                      A                      A
 Frequencies --   3067.5387              3075.9921              3139.8622
 Red. masses --      1.0297                 1.0611                 1.1040
 Frc consts  --      5.7089                 5.9154                 6.4125
 IR Inten    --     29.8423                10.4473                 5.8084

                     52                     53                     54
                      A                      A                      A
 Frequencies --   3146.0273              3179.1936              3189.4735
 Red. masses --      1.1071                 1.1072                 1.0895
 Frc consts  --      6.4557                 6.5937                 6.5300
 IR Inten    --     19.8181                14.8994                 9.5073

                     55                     56                     57
                      A                      A                      A
 Frequencies --   3204.0134              3221.3738              3223.0632
 Red. masses --      1.0891                 1.0938                 1.0950
 Frc consts  --      6.5872                 6.6878                 6.7018
 IR Inten    --      0.9120                 4.4867                 0.9050

 - Thermochemistry -
 -------------------
 Temperature   298.150 Kelvin.  Pressure   1.00000 Atm.
 Atom     1 has atomic number  6 and mass  12.00000

 Molecular mass:   184.02911 amu.
 Principal axes and moments of inertia in atomic units:
                           1         2         3
     Eigenvalues --   864.275665349.426635465.28085
           X            0.99991   0.00079   0.01341
           Y           -0.00044   0.99966  -0.02621
           Z           -0.01342   0.02620   0.99957
 This molecule is an asymmetric top.
 Rotational symmetry number  1.
 Warning -- assumption of classical behavior for rotation
           may cause significant error
 Rotational temperatures (Kelvin)      0.10022     0.01619     0.01585
 Rotational constants (GHZ):           2.08815     0.33737     0.33022
 Zero-point vibrational energy     426956.8 (Joules/Mol)
                                  102.04512 (Kcal/Mol)
 Warning -- explicit consideration of  15 degrees of freedom as
           vibrations may cause significant error
 Vibrational temperatures:     26.82    45.28    99.97   168.71   190.49
          (Kelvin)            276.57   328.47   408.87   451.41   514.79
                              567.79   604.73   611.74   728.93   866.26
                              931.87   973.43  1020.36  1120.48  1183.69
                             1212.48  1232.22  1284.31  1377.72  1387.77
                             1405.73  1489.27  1508.14  1601.35  1633.28
                             1679.04  1697.32  1741.84  1744.08  1758.12
                             1860.35  1907.56  1916.82  1968.41  2089.68
                             2130.34  2142.45  2152.53  2171.54  2209.99
                             2348.67  2381.63  2620.68  4413.50  4425.67
                             4517.56  4526.43  4574.15  4588.94  4609.86
                             4634.84  4637.27

 Zero-point correction=                           0.162619 (Hartree/Particle)
 Thermal correction to Energy=                    0.174061
 Thermal correction to Enthalpy=                  0.175005
 Thermal correction to Gibbs Free Energy=         0.122417
 Sum of electronic and zero-point Energies=           -958.923560
 Sum of electronic and thermal Energies=              -958.912118
 Sum of electronic and thermal Enthalpies=            -958.911174
 Sum of electronic and thermal Free Energies=         -958.963762

                     E (Thermal)             CV                S
                      KCal/Mol        Cal/Mol-Kelvin    Cal/Mol-Kelvin
 Total                  109.225             41.054            110.680
 Electronic               0.000              0.000              0.000
 Translational            0.889              2.981             41.536
 Rotational               0.889              2.981             31.602
 Vibrational            107.447             35.093             37.542
 Vibration     1          0.593              1.986              6.774
 Vibration     2          0.594              1.983              5.735
 Vibration     3          0.598              1.969              4.168
 Vibration     4          0.608              1.935              3.145
 Vibration     5          0.613              1.921              2.911
 Vibration     6          0.634              1.851              2.206
 Vibration     7          0.651              1.798              1.892
 Vibration     8          0.683              1.703              1.508
 Vibration     9          0.702              1.647              1.343
 Vibration    10          0.733              1.559              1.132
 Vibration    11          0.762              1.482              0.983
 Vibration    12          0.783              1.426              0.891
 Vibration    13          0.787              1.415              0.875
 Vibration    14          0.862              1.235              0.642
 Vibration    15          0.960              1.027              0.446

                           ! Non-Optimized Parameters !
 Normal termination of Gaussian 16 at Tue Sep 17 09:48:15 2024.

 ----------------------------------------------------------------------
 #p M062X/def2tzvp geom=check guess=read scf(xqc,tight) integral(grid=u
 ltrafine) scrf(SMD, solvent=1,4-Dioxane) polar prop=efg volume
 ----------------------------------------------------------------------

 ---
 spe
 ---
 Structure from the checkpoint file:  "smiles_00075_conf_1.chk"
 Charge =  0 Multiplicity = 1

 SCF Done:  E(RM062X) =  -959.029915379     A.U. after   12 cycles

  Exact polarizability:     179.687       2.340     135.058     -14.368       1.652      99.610
 Approx polarizability:     174.000       1.433     164.736     -18.381       2.876     113.968

 Normal termination of Gaussian 16 at Tue Sep 17 10:31:18 2024.
 Gaussian 16:  ES64L-G16RevC.02  7-Dec-2021

 ----------------------------------------------------------------------
 #p M062X/def2tzvp geom=check guess=read scf(xqc,tight) integral(grid=u
 ltrafine) scrf(SMD, solvent=1,4-Dioxane) nmr=giao
 ----------------------------------------------------------------------

 ---
 spe
 ---
 Structure from the checkpoint file:  "smiles_00075_conf_1.chk"
 Charge =  0 Multiplicity = 1

                         Standard orientation:
 ---------------------------------------------------------------------
 Center     Atomic      Atomic             Coordinates (Angstroms)
 Number     Number       Type             X           Y           Z
 ---------------------------------------------------------------------
      1          6           0       -4.003726   -0.113321   -1.537551
      2          8           0       -3.136942   -0.680257   -0.539352
      3          6           0       -2.602282    0.207524    0.322451
      4          8           0       -2.833442    1.397464    0.296458
      5          6           0       -1.641164   -0.464622    1.285309
      6          6           0       -0.210887   -0.300542    0.804592
      7          6           0        0.572883   -1.414596    0.495467
      8          6           0        1.887308   -1.267808    0.052594
      9          6           0        2.413745    0.013322   -0.085295
     10         17           0        4.069510    0.212184   -0.641945
     11          6           0        1.650012    1.142006    0.209421
     12          6           0        0.340589    0.977698    0.652570
     13          1           0       -3.458123    0.608052   -2.150102
     14          1           0       -4.850254    0.391977   -1.067211
     15          1           0       -4.343900   -0.952893   -2.142378
     16          1           0       -1.771351    0.018471    2.258266
     17          1           0       -1.891194   -1.522581    1.380771
     18          1           0        0.156215   -2.411844    0.601431
     19          1           0        2.494051   -2.134064   -0.184096
     20          1           0        2.076357    2.131547    0.092392
     21          1           0       -0.269265    1.848593    0.869791
 ---------------------------------------------------------------------

 SCF Done:  E(RM062X) =  -959.029915379     A.U. after    1 cycles

      1  C    Isotropic =   130.3882   Anisotropy =    74.1907

      2  O    Isotropic =   120.6849   Anisotropy =   180.6729

      3  C    Isotropic =    -9.8071   Anisotropy =   122.0580

      4  O    Isotropic =  -151.2448   Anisotropy =   676.3843

      5  C    Isotropic =   139.9800   Anisotropy =    21.9118

      6  C    Isotropic =    27.6458   Anisotropy =   219.1460

      7  C    Isotropic =    32.5002   Anisotropy =   189.2049

      8  C    Isotropic =    35.0312   Anisotropy =   184.9792

      9  C    Isotropic =    22.6086   Anisotropy =   144.0933

     10  Cl   Isotropic =   685.4322   Anisotropy =   507.9122

     11  C    Isotropic =    34.2877   Anisotropy =   186.4268

     12  C    Isotropic =    32.4619   Anisotropy =   211.4263

     13  H    Isotropic =    28.4101   Anisotropy =     7.7271

     14  H    Isotropic =    28.1187   Anisotropy =     8.5134

     15  H    Isotropic =    28.3459   Anisotropy =     7.8085

     16  H    Isotropic =    28.1518   Anisotropy =     5.4490

     17  H    Isotropic =    28.3230   Anisotropy =     4.0768

     18  H    Isotropic =    23.8136   Anisotropy =     7.8016

     19  H    Isotropic =    23.7713   Anisotropy =     8.5913

     20  H    Isotropic =    23.6856   Anisotropy =     8.9015

     21  H    Isotropic =    23.2067   Anisotropy =     9.3339

 The electronic state is 1-A.
 Alpha  occ. eigenvalues -- -102.64595 -19.67719 -19.62131 -10.67836 -10.60786
 Alpha  occ. eigenvalues --  -10.58846 -10.56630 -10.55894 -10.55673 -10.55622
 Alpha  occ. eigenvalues --  -10.55479 -10.55210  -9.80842  -7.53037  -7.52530
 Alpha  occ. eigenvalues --   -7.52518  -1.23597  -1.14345  -0.99638  -0.94633
 Alpha  occ. eigenvalues --   -0.88499  -0.85657  -0.82721  -0.77872  -0.70833
 Alpha  occ. eigenvalues --   -0.67688  -0.65236  -0.59700  -0.58522  -0.57179
 Alpha  occ. eigenvalues --   -0.56033  -0.54570  -0.53436  -0.50116  -0.49860
 Alpha  occ. eigenvalues --   -0.48613  -0.47673  -0.46270  -0.45434  -0.43616
 Alpha  occ. eigenvalues --   -0.42063  -0.41564  -0.39839  -0.38182  -0.37806
 Alpha  occ. eigenvalues --   -0.36052  -0.32120  -0.29759
 Alpha virt. eigenvalues --    0.00440   0.00797   0.04841   0.06486   0.07829
 Alpha virt. eigenvalues --    0.09868   0.10643   0.11663   0.12400   0.13400
 Alpha virt. eigenvalues --    0.14267   0.14531   0.15626   0.16291   0.16714

 Mulliken charges:
               1
     1  C   -0.267597
     2  O   -0.271648
     3  C    0.397707
     4  O   -0.366930
     5  C   -0.365744
     6  C    0.082215
     7  C   -0.188372
     8  C   -0.176435
     9  C    0.074504
    10  Cl  -0.103503
    11  C   -0.175625
    12  C   -0.187600
    13  H    0.161168
    14  H    0.160168
    15  H    0.156528
    16  H    0.192563
    17  H    0.172100
    18  H    0.167924
    19  H    0.173930
    20  H    0.175494
    21  H    0.189152
 Sum of Mulliken charges =  -0.00000

 Dipole moment (field-independent basis, Debye):
    X=             -2.1151    Y=             -2.0655    Z=              0.0336  Tot=              2.9565
 Quadrupole moment (field-independent basis, Debye-Ang):
   XX=            -78.7388   YY=            -74.9686   ZZ=            -74.5725
   XY=              4.6465   XZ=              4.1061   YZ=             -1.0929

 Normal termination of Gaussian 16 at Tue Sep 17 10:46:57 2024.
