 Gaussian 16, Revision C.02,

 ----------------------------------------------------------------------
 #p B3LYP/6-31G(d,p) EmpiricalDispersion=GD3BJ opt freq scf(xqc,tight)
 integral(grid=ultrafine)
 ----------------------------------------------------------------------

 ----------------------------------
 opt-freq conformers_unique/conf_aa
 ----------------------------------
 Symbolic Z-matrix:
 Charge =  0 Multiplicity = 1

 SCF Done:  E(RB3LYP) =  -2918.65247893     A.U. after   15 cycles
 SCF Done:  E(RB3LYP) =  -2918.65311345     A.U. after   12 cycles
 SCF Done:  E(RB3LYP) =  -2918.65314198     A.U. after    9 cycles
 SCF Done:  E(RB3LYP) =  -2918.65314467     A.U. after    9 cycles
 Optimization completed.
    -- Stationary point found.
 Normal termination of Gaussian 16 at Tue Sep 17 09:42:26 2024.

 ----------------------------------------------------------------------
 #P Geom=AllCheck Guess=TCheck SCRF=Check GenChk RB3LYP/6-31G(d,p) Freq
 ----------------------------------------------------------------------

 Structure from the checkpoint file:  "smiles_00025_conf_0.chk"
 ----------------------------------
 opt-freq conformers_unique/conf_aa
 ----------------------------------
 Charge =  0 Multiplicity = 1

 SCF Done:  E(RB3LYP) =  -2918.65314467     A.U. after    1 cycles

                      1                      2                      3
                      A                      A                      A
 Frequencies --    137.9225               192.5404               269.2934
 Red. masses --      6.0277                14.0068                 6.0383
 Frc consts  --      0.0676                 0.3059                 0.2580
 IR Inten    --      0.1741                 0.3374                 0.6266

                      4                      5                      6
                      A                      A                      A
 Frequencies --    310.3129               461.1353               498.9106
 Red. masses --     10.8598                 4.5693                 8.7458
 Frc consts  --      0.6161                 0.5725                 1.2826
 IR Inten    --      1.8321                 0.3856                 0.2503

                      7                      8                      9
                      A                      A                      A
 Frequencies --    561.8169               574.3199               674.2597
 Red. masses --      3.4706                10.4367                 8.3139
 Frc consts  --      0.6454                 2.0283                 2.2269
 IR Inten    --      0.3025                 9.0698                10.1302

                     10                     11                     12
                      A                      A                      A
 Frequencies --    759.1732               813.6448               871.0742
 Red. masses --      7.9581                 1.2574                 6.6858
 Frc consts  --      2.7024                 0.4905                 2.9889
 IR Inten    --     14.4408                28.2471                13.3727

                     13                     14                     15
                      A                      A                      A
 Frequencies --    961.6990               988.3057              1047.0360
 Red. masses --      1.3595                 1.3367                 8.1911
 Frc consts  --      0.7408                 0.7693                 5.2908
 IR Inten    --      0.0324                 1.2081                65.9108

                     16                     17                     18
                      A                      A                      A
 Frequencies --   1095.7734              1153.4290              1266.1083
 Red. masses --      2.0900                 1.3733                 1.8054
 Frc consts  --      1.4785                 1.0764                 1.7052
 IR Inten    --     10.2406                10.6092                12.3981

                     19                     20                     21
                      A                      A                      A
 Frequencies --   1325.1271              1337.4711              1477.7381
 Red. masses --      5.6563                 2.7593                 2.5673
 Frc consts  --      5.8519                 2.9082                 3.3031
 IR Inten    --     16.4210                 9.0602                83.4276

                     22                     23                     24
                      A                      A                      A
 Frequencies --   1496.3466              1626.9877              1631.1903
 Red. masses --      2.9485                 7.2747                 6.4799
 Frc consts  --      3.8897                11.3458                10.1584
 IR Inten    --    126.6814                10.8459                54.9564

                     25                     26                     27
                      A                      A                      A
 Frequencies --   3188.4116              3215.3277              3228.4623
 Red. masses --      1.0898                 1.0906                 1.0973
 Frc consts  --      6.5274                 6.6432                 6.7385
 IR Inten    --     11.4037                 5.6567                 4.5125

 - Thermochemistry -
 -------------------
 Temperature   298.150 Kelvin.  Pressure   1.00000 Atm.
 Atom     1 has atomic number  9 and mass  18.99840

 Molecular mass:   174.94329 amu.
 Principal axes and moments of inertia in atomic units:
                           1         2         3
     Eigenvalues --   617.223931825.423162442.64709
           X            0.99941  -0.03432  -0.00000
           Y            0.03432   0.99941   0.00003
           Z            0.00000  -0.00003   1.00000
 This molecule is an asymmetric top.
 Rotational symmetry number  1.
 Warning -- assumption of classical behavior for rotation
           may cause significant error
 Rotational temperatures (Kelvin)      0.14033     0.04745     0.03546
 Rotational constants (GHZ):           2.92397     0.98867     0.73885
 Zero-point vibrational energy     186401.0 (Joules/Mol)
                                   44.55091 (Kcal/Mol)
 Warning -- explicit consideration of   8 degrees of freedom as
           vibrations may cause significant error
 Vibrational temperatures:    198.44   277.02   387.45   446.47   663.47
          (Kelvin)            717.82   808.33   826.32   970.11  1092.28
                             1170.65  1253.28  1383.67  1421.95  1506.45
                             1576.57  1659.53  1821.65  1906.56  1924.32
                             2126.14  2152.91  2340.87  2346.92  4587.41
                             4626.14  4645.04

 Zero-point correction=                           0.070996 (Hartree/Particle)
 Thermal correction to Energy=                    0.077325
 Thermal correction to Enthalpy=                  0.078269
 Thermal correction to Gibbs Free Energy=         0.038989
 Sum of electronic and zero-point Energies=          -2918.582148
 Sum of electronic and thermal Energies=             -2918.575820
 Sum of electronic and thermal Enthalpies=           -2918.574875
 Sum of electronic and thermal Free Energies=        -2918.614156

                     E (Thermal)             CV                S
                      KCal/Mol        Cal/Mol-Kelvin    Cal/Mol-Kelvin
 Total                   48.522             23.014             82.672
 Electronic               0.000              0.000              0.000
 Translational            0.889              2.981             41.385
 Rotational               0.889              2.981             29.399
 Vibrational             46.745             17.053             11.887
 Vibration     1          0.614              1.915              2.832
 Vibration     2          0.635              1.850              2.203
 Vibration     3          0.674              1.730              1.601
 Vibration     4          0.699              1.654              1.361
 Vibration     5          0.819              1.336              0.763
 Vibration     6          0.854              1.252              0.661
 Vibration     7          0.918              1.114              0.520
 Vibration     8          0.931              1.087              0.496

 Optimization completed.
    -- Stationary point found.
 Normal termination of Gaussian 16 at Tue Sep 17 09:42:59 2024.

 ----------------------------------------------------------------------
 #p M062X/def2tzvp geom=check guess=read scf(xqc,tight) integral(grid=u
 ltrafine) scrf(SMD, solvent=1,4-Dioxane) polar prop=efg volume
 ----------------------------------------------------------------------

 ---
 spe
 ---
 Structure from the checkpoint file:  "smiles_00025_conf_0.chk"
 Charge =  0 Multiplicity = 1

 SCF Done:  E(RM062X) =  -2921.12570271     A.U. after   12 cycles

  Exact polarizability:     132.761      -4.095      94.157       0.000      -0.001      52.520
 Approx polarizability:     142.046      -3.628     113.163       0.000      -0.001      65.212

 Normal termination of Gaussian 16 at Tue Sep 17 09:48:52 2024.
 Gaussian 16:  ES64L-G16RevC.02  7-Dec-2021

 ----------------------------------------------------------------------
 #p M062X/def2tzvp geom=check guess=read scf(xqc,tight) integral(grid=u
 ltrafine) scrf(SMD, solvent=1,4-Dioxane) nmr=giao
 ----------------------------------------------------------------------

 ---
 spe
 ---
 Structure from the checkpoint file:  "smiles_00025_conf_0.chk"
 Charge =  0 Multiplicity = 1

                         Standard orientation:
 ---------------------------------------------------------------------
 Center     Atomic      Atomic             Coordinates (Angstroms)
 Number     Number       Type             X           Y           Z
 ---------------------------------------------------------------------
      1          9           0        0.180329    2.108716   -0.000064
      2          6           0        0.825235    0.939596   -0.000027
      3          7           0        2.137523    0.988566   -0.000026
      4          6           0        2.806423   -0.174097    0.000013
      5          6           0        2.174197   -1.413828    0.000049
      6          6           0        0.778359   -1.447645    0.000048
      7          6           0        0.081937   -0.245461    0.000009
      8         35           0       -1.813142   -0.200968    0.000001
      9          1           0        3.890429   -0.099789    0.000010
     10          1           0        2.752376   -2.330786    0.000075
     11          1           0        0.234628   -2.385332    0.000074
 ---------------------------------------------------------------------

 SCF Done:  E(RM062X) =  -2921.12570271     A.U. after    1 cycles

      1  F    Isotropic =   235.5783   Anisotropy =    88.0385

      2  C    Isotropic =     2.9488   Anisotropy =   109.5397

      3  N    Isotropic =   -90.6388   Anisotropy =   507.1934

      4  C    Isotropic =    14.3173   Anisotropy =   197.0117

      5  C    Isotropic =    42.2427   Anisotropy =   198.8310

      6  C    Isotropic =    16.0562   Anisotropy =   210.5730

      7  C    Isotropic =    45.3383   Anisotropy =   123.4611

      8  Br   Isotropic =  2172.4303   Anisotropy =  1057.5039

      9  H    Isotropic =    22.8367   Anisotropy =     5.8746

     10  H    Isotropic =    23.8775   Anisotropy =     5.8159

     11  H    Isotropic =    23.1222   Anisotropy =    10.7158

 The electronic state is 1-A.
 Alpha  occ. eigenvalues -- -485.39047 -63.37518 -57.19475 -57.19223 -57.19213
 Alpha  occ. eigenvalues --  -25.27442 -14.77518 -10.68096 -10.62243 -10.59915
 Alpha  occ. eigenvalues --  -10.58558 -10.56731  -9.04167  -6.86615  -6.85681
 Alpha  occ. eigenvalues --   -6.85646  -2.89991  -2.89657  -2.89619  -2.88750
 Alpha  occ. eigenvalues --   -2.88749  -1.39546  -1.08433  -0.95507  -0.89967
 Alpha  occ. eigenvalues --   -0.84683  -0.74918  -0.73503  -0.65530  -0.61252
 Alpha  occ. eigenvalues --   -0.59535  -0.57588  -0.52363  -0.51597  -0.48805
 Alpha  occ. eigenvalues --   -0.48717  -0.45832  -0.41036  -0.37373  -0.35612
 Alpha  occ. eigenvalues --   -0.35512  -0.31368
 Alpha virt. eigenvalues --   -0.01897   0.00378   0.02581   0.09161   0.11005
 Alpha virt. eigenvalues --    0.11629   0.13550   0.16293   0.16758   0.18336
 Alpha virt. eigenvalues --    0.20891   0.21974   0.22367   0.23794   0.24490

 Mulliken charges:
               1
     1  F   -0.178994
     2  C    0.324313
     3  N   -0.225796
     4  C   -0.036671
     5  C   -0.174460
     6  C   -0.106008
     7  C   -0.078322
     8  Br  -0.058717
     9  H    0.172734
    10  H    0.171548
    11  H    0.190373
 Sum of Mulliken charges =  -0.00000

 Dipole moment (field-independent basis, Debye):
    X=              1.3362    Y=             -3.8188    Z=              0.0001  Tot=              4.0458
 Quadrupole moment (field-independent basis, Debye-Ang):
   XX=            -52.0223   YY=            -57.4818   ZZ=            -58.9697
   XY=             -6.1390   XZ=              0.0002   YZ=             -0.0000

 Normal termination of Gaussian 16 at Tue Sep 17 09:51:58 2024.
