 Gaussian 16, Revision C.02,

 ----------------------------------------------------------------------
 #p B3LYP/6-31G(d,p) EmpiricalDispersion=GD3BJ opt freq scf(xqc,tight)
 integral(grid=ultrafine)
 ----------------------------------------------------------------------

 ----------------------------------
 opt-freq conformers_unique/conf_aa
 ----------------------------------
 Symbolic Z-matrix:
 Charge =  0 Multiplicity = 1

 SCF Done:  E(RB3LYP) =  -2911.65487376     A.U. after   15 cycles
 SCF Done:  E(RB3LYP) =  -2911.65659455     A.U. after   12 cycles
 SCF Done:  E(RB3LYP) =  -2911.65660853     A.U. after   11 cycles
 SCF Done:  E(RB3LYP) =  -2911.65661085     A.U. after   12 cycles
 SCF Done:  E(RB3LYP) =  -2911.65664066     A.U. after   11 cycles
 Optimization completed.
    -- Stationary point found.
 Normal termination of Gaussian 16 at Tue Sep 17 09:49:36 2024.

 ----------------------------------------------------------------------
 #P Geom=AllCheck Guess=TCheck SCRF=Check GenChk RB3LYP/6-31G(d,p) Freq
 ----------------------------------------------------------------------

 Structure from the checkpoint file:  "smiles_00123_conf_0.chk"
 ----------------------------------
 opt-freq conformers_unique/conf_aa
 ----------------------------------
 Charge =  0 Multiplicity = 1

 SCF Done:  E(RB3LYP) =  -2911.65664066     A.U. after    1 cycles

                      1                      2                      3
                      A                      A                      A
 Frequencies --    123.8939               128.0393               180.3614
 Red. masses --     13.9024                 6.1584                 7.3534
 Frc consts  --      0.1257                 0.0595                 0.1409
 IR Inten    --      3.3792                 3.1471                 0.7819

                      4                      5                      6
                      A                      A                      A
 Frequencies --    265.6280               310.5650               377.2641
 Red. masses --      6.5757                13.5491                 4.5341
 Frc consts  --      0.2734                 0.7700                 0.3802
 IR Inten    --      0.7211                 2.4458                 1.3407

                      7                      8                      9
                      A                      A                      A
 Frequencies --    476.7132               485.4885               577.2034
 Red. masses --      4.1192                 9.5526                 8.7227
 Frc consts  --      0.5515                 1.3266                 1.7122
 IR Inten    --     16.8834                 1.4139                 4.5607

                     10                     11                     12
                      A                      A                      A
 Frequencies --    624.0362               700.4985               756.3097
 Red. masses --      6.2797                 7.9002                 3.7855
 Frc consts  --      1.4408                 2.2840                 1.2758
 IR Inten    --      0.0004                25.3875                 0.0589

                     13                     14                     15
                      A                      A                      A
 Frequencies --    847.3174               863.7704               914.9359
 Red. masses --      8.3767                 1.3536                 1.4135
 Frc consts  --      3.5434                 0.5950                 0.6972
 IR Inten    --     38.7611                20.3854                 7.3086

                     16                     17                     18
                      A                      A                      A
 Frequencies --    994.7006              1006.8227              1113.7750
 Red. masses --      1.3911                 6.9694                 2.0928
 Frc consts  --      0.8109                 4.1625                 1.5296
 IR Inten    --      0.0004                 0.6355                13.6184

                     19                     20                     21
                      A                      A                      A
 Frequencies --   1131.2405              1241.4074              1299.5917
 Red. masses --      1.4893                 2.8584                 6.0299
 Frc consts  --      1.1229                 2.5954                 6.0003
 IR Inten    --      0.2792                 7.4342                 2.9077

                     22                     23                     24
                      A                      A                      A
 Frequencies --   1323.3462              1413.1939              1500.3743
 Red. masses --      1.7008                 3.0378                 2.2685
 Frc consts  --      1.7549                 3.5745                 3.0088
 IR Inten    --      1.3224                22.2016                22.2569

                     25                     26                     27
                      A                      A                      A
 Frequencies --   1599.9560              1616.3463              2363.3079
 Red. masses --      6.3073                 6.7759                12.6859
 Frc consts  --      9.5128                10.4301                41.7457
 IR Inten    --    116.7609                70.2216                 1.5710

                     28                     29                     30
                      A                      A                      A
 Frequencies --   3184.8449              3234.1683              3239.0787
 Red. masses --      1.0907                 1.0944                 1.0938
 Frc consts  --      6.5185                 6.7443                 6.7614
 IR Inten    --     13.9376                 0.7451                 1.1706

 - Thermochemistry -
 -------------------
 Temperature   298.150 Kelvin.  Pressure   1.00000 Atm.
 Atom     1 has atomic number  7 and mass  14.00307

 Molecular mass:   181.94796 amu.
 Principal axes and moments of inertia in atomic units:
                           1         2         3
     Eigenvalues --   688.200363050.133133738.33349
           X            0.99994  -0.01121  -0.00001
           Y            0.01121   0.99994  -0.00006
           Z            0.00001   0.00006   1.00000
 This molecule is an asymmetric top.
 Rotational symmetry number  1.
 Warning -- assumption of classical behavior for rotation
           may cause significant error
 Rotational temperatures (Kelvin)      0.12586     0.02840     0.02317
 Rotational constants (GHZ):           2.62241     0.59169     0.48277
 Zero-point vibrational energy     202732.2 (Joules/Mol)
                                   48.45416 (Kcal/Mol)
 Warning -- explicit consideration of   9 degrees of freedom as
           vibrations may cause significant error
 Vibrational temperatures:    178.26   184.22   259.50   382.18   446.83
          (Kelvin)            542.80   685.88   698.51   830.47   897.85
                             1007.86  1088.16  1219.10  1242.77  1316.39
                             1431.15  1448.59  1602.47  1627.60  1786.11
                             1869.82  1904.00  2033.27  2158.70  2301.98
                             2325.56  3400.27  4582.28  4653.25  4660.31

 Zero-point correction=                           0.077217 (Hartree/Particle)
 Thermal correction to Energy=                    0.084571
 Thermal correction to Enthalpy=                  0.085515
 Thermal correction to Gibbs Free Energy=         0.043667
 Sum of electronic and zero-point Energies=          -2911.579424
 Sum of electronic and thermal Energies=             -2911.572070
 Sum of electronic and thermal Enthalpies=           -2911.571125
 Sum of electronic and thermal Free Energies=        -2911.612974

                     E (Thermal)             CV                S
                      KCal/Mol        Cal/Mol-Kelvin    Cal/Mol-Kelvin
 Total                   53.069             26.419             88.078
 Electronic               0.000              0.000              0.000
 Translational            0.889              2.981             41.502
 Rotational               0.889              2.981             30.441
 Vibrational             51.292             20.457             16.135
 Vibration     1          0.610              1.929              3.039
 Vibration     2          0.611              1.925              2.975
 Vibration     3          0.629              1.866              2.325
 Vibration     4          0.671              1.736              1.624
 Vibration     5          0.699              1.654              1.359
 Vibration     6          0.748              1.519              1.050
 Vibration     7          0.833              1.302              0.719
 Vibration     8          0.842              1.282              0.695
 Vibration     9          0.934              1.081              0.491

 Optimization completed.
    -- Stationary point found.
 Normal termination of Gaussian 16 at Tue Sep 17 09:50:20 2024.

 ----------------------------------------------------------------------
 #p M062X/def2tzvp geom=check guess=read scf(xqc,tight) integral(grid=u
 ltrafine) scrf(SMD, solvent=1,4-Dioxane) polar prop=efg volume
 ----------------------------------------------------------------------

 ---
 spe
 ---
 Structure from the checkpoint file:  "smiles_00123_conf_0.chk"
 Charge =  0 Multiplicity = 1

 SCF Done:  E(RM062X) =  -2914.11147043     A.U. after   13 cycles

  Exact polarizability:     159.477      -9.175     121.125      -0.001       0.004      59.947
 Approx polarizability:     169.187      -9.923     141.788      -0.003       0.005      74.614

 Normal termination of Gaussian 16 at Tue Sep 17 09:59:18 2024.
 Gaussian 16:  ES64L-G16RevC.02  7-Dec-2021

 ----------------------------------------------------------------------
 #p M062X/def2tzvp geom=check guess=read scf(xqc,tight) integral(grid=u
 ltrafine) scrf(SMD, solvent=1,4-Dioxane) nmr=giao
 ----------------------------------------------------------------------

 ---
 spe
 ---
 Structure from the checkpoint file:  "smiles_00123_conf_0.chk"
 Charge =  0 Multiplicity = 1

                         Standard orientation:
 ---------------------------------------------------------------------
 Center     Atomic      Atomic             Coordinates (Angstroms)
 Number     Number       Type             X           Y           Z
 ---------------------------------------------------------------------
      1          7           0        3.951131   -1.633845   -0.000210
      2          6           0        3.043580   -0.908646    0.000146
      3          6           0        1.890081   -0.042548    0.000096
      4          6           0        0.612696   -0.617794    0.000036
      5          6           0       -0.474150    0.249930    0.000014
      6         35           0       -2.239899   -0.445891   -0.000062
      7          6           0       -0.262866    1.624971    0.000044
      8          6           0        1.058238    2.079609    0.000101
      9          7           0        2.125774    1.279215    0.000120
     10          1           0        0.484402   -1.692560    0.000015
     11          1           0       -1.092909    2.320482    0.000024
     12          1           0        1.261170    3.147552    0.000122
 ---------------------------------------------------------------------

 SCF Done:  E(RM062X) =  -2914.11147043     A.U. after    1 cycles

      1  N    Isotropic =   -79.0507   Anisotropy =   478.5728

      2  C    Isotropic =    50.8933   Anisotropy =   371.1843

      3  C    Isotropic =    26.2426   Anisotropy =   163.5699

      4  C    Isotropic =    29.3808   Anisotropy =   187.1094

      5  C    Isotropic =     9.2502   Anisotropy =   186.0733

      6  Br   Isotropic =  2016.5830   Anisotropy =  1286.3760

      7  C    Isotropic =    32.8080   Anisotropy =   186.8711

      8  C    Isotropic =     9.7805   Anisotropy =   206.3811

      9  N    Isotropic =  -145.8341   Anisotropy =   665.5935

     10  H    Isotropic =    23.2159   Anisotropy =    12.2245

     11  H    Isotropic =    23.4493   Anisotropy =    10.9137

     12  H    Isotropic =    22.3412   Anisotropy =     7.1913

 The electronic state is 1-A.
 Alpha  occ. eigenvalues -- -485.39980 -63.38455 -57.20405 -57.20162 -57.20149
 Alpha  occ. eigenvalues --  -14.78714 -14.77418 -10.64195 -10.64146 -10.60925
 Alpha  occ. eigenvalues --  -10.59703 -10.59347 -10.58666  -9.05102  -6.87532
 Alpha  occ. eigenvalues --   -6.86629  -6.86586  -2.90910  -2.90588  -2.90543
 Alpha  occ. eigenvalues --   -2.89702  -2.89701  -1.09631  -1.02783  -0.97086
 Alpha  occ. eigenvalues --   -0.90901  -0.87432  -0.77821  -0.74031  -0.64237
 Alpha  occ. eigenvalues --   -0.60434  -0.59413  -0.54038  -0.52556  -0.48597
 Alpha  occ. eigenvalues --   -0.47915  -0.45939  -0.44767  -0.42258  -0.41808
 Alpha  occ. eigenvalues --   -0.37438  -0.36642  -0.34652  -0.34200
 Alpha virt. eigenvalues --   -0.04945  -0.02557   0.01296   0.06256   0.08324
 Alpha virt. eigenvalues --    0.09397   0.09904   0.11378   0.12689   0.13484
 Alpha virt. eigenvalues --    0.16623   0.18212   0.19060   0.21491   0.21891

 Mulliken charges:
               1
     1  N   -0.022593
     2  C   -0.202220
     3  C    0.268648
     4  C   -0.179934
     5  C    0.053939
     6  Br  -0.057041
     7  C   -0.125315
     8  C   -0.061442
     9  N   -0.247551
    10  H    0.207408
    11  H    0.189128
    12  H    0.176971
 Sum of Mulliken charges =  -0.00000

 Dipole moment (field-independent basis, Debye):
    X=             -4.8702    Y=              2.5902    Z=              0.0005  Tot=              5.5162
 Quadrupole moment (field-independent basis, Debye-Ang):
   XX=            -86.5865   YY=            -59.3746   ZZ=            -64.8511
   XY=              5.8718   XZ=              0.0017   YZ=             -0.0007

 Normal termination of Gaussian 16 at Tue Sep 17 10:03:40 2024.
