 Gaussian 16, Revision C.02,

 ----------------------------------------------------------------------
 #p B3LYP/gen pseudo=read EmpiricalDispersion=GD3BJ opt freq scf(xqc,ti
 ght) integral(grid=ultrafine)
 ----------------------------------------------------------------------

 ----------------------------------
 opt-freq conformers_unique/conf_ab
 ----------------------------------
 Symbolic Z-matrix:
 Charge =  0 Multiplicity = 1

 SCF Done:  E(RB3LYP) =  -361.027670219     A.U. after   14 cycles
 SCF Done:  E(RB3LYP) =  -361.029315217     A.U. after   11 cycles
 SCF Done:  E(RB3LYP) =  -361.029423760     A.U. after   11 cycles
 SCF Done:  E(RB3LYP) =  -361.029428320     A.U. after    8 cycles
 SCF Done:  E(RB3LYP) =  -361.029428872     A.U. after    8 cycles
 Optimization completed.
    -- Stationary point found.
 Normal termination of Gaussian 16 at Tue Sep 17 09:49:41 2024.

 ------------------------------------------------------------------
 #P Geom=AllCheck Guess=TCheck SCRF=Check GenChk RB3LYP/ChkBas Freq
 ------------------------------------------------------------------

 Structure from the checkpoint file:  "smiles_00053_conf_1.chk"
 ----------------------------------
 opt-freq conformers_unique/conf_ab
 ----------------------------------
 Charge =  0 Multiplicity = 1

 SCF Done:  E(RB3LYP) =  -361.029428872     A.U. after    1 cycles
 ******    1 imaginary frequencies (negative Signs) ******

                      1                      2                      3
                      A                      A                      A
 Frequencies --   -154.6538                12.8541                71.5908
 Red. masses --      1.0196                 1.0415                 3.6871
 Frc consts  --      0.0144                 0.0001                 0.0111
 IR Inten    --      0.1373                 0.1985                 0.0555

                      4                      5                      6
                      A                      A                      A
 Frequencies --    172.5299               189.4130               194.9359
 Red. masses --      2.1753                 1.2886                 5.0850
 Frc consts  --      0.0381                 0.0272                 0.1138
 IR Inten    --      3.6064                 0.4015                 0.0935

                      7                      8                      9
                      A                      A                      A
 Frequencies --    213.8085               223.6067               282.1416
 Red. masses --      8.3334                 2.3889                 2.5192
 Frc consts  --      0.2245                 0.0704                 0.1182
 IR Inten    --      1.9695                 0.0004                 0.2701

                     10                     11                     12
                      A                      A                      A
 Frequencies --    304.9444               338.2479               497.7267
 Red. masses --      4.4114                 2.7375                 2.7933
 Frc consts  --      0.2417                 0.1845                 0.4077
 IR Inten    --      1.0964                 0.0553                 0.0029

                     13                     14                     15
                      A                      A                      A
 Frequencies --    526.8952               546.4362               551.9253
 Red. masses --      3.1227                 4.9819                 3.5684
 Frc consts  --      0.5108                 0.8764                 0.6404
 IR Inten    --      0.0009                 2.2748                 2.7794

                     16                     17                     18
                      A                      A                      A
 Frequencies --    554.3148               589.8548               715.3324
 Red. masses --      5.0571                 4.2088                 3.4254
 Frc consts  --      0.9155                 0.8628                 1.0327
 IR Inten    --     10.3463                 0.1871                 0.1091

                     19                     20                     21
                      A                      A                      A
 Frequencies --    872.8756               897.2390               953.6708
 Red. masses --      1.2753                 1.3009                 2.6565
 Frc consts  --      0.5725                 0.6170                 1.4235
 IR Inten    --     11.1873                 0.1312                 0.0938

                     22                     23                     24
                      A                      A                      A
 Frequencies --    962.6572              1011.0669              1042.1962
 Red. masses --      2.8250                 5.4869                 1.7313
 Frc consts  --      1.5425                 3.3047                 1.1079
 IR Inten    --     26.1488                56.6813                 4.8692

                     25                     26                     27
                      A                      A                      A
 Frequencies --   1045.8036              1053.3586              1061.1729
 Red. masses --      1.7944                 1.5521                 1.5003
 Frc consts  --      1.1563                 1.0146                 0.9954
 IR Inten    --     14.5945                 0.3949                 4.3429

                     28                     29                     30
                      A                      A                      A
 Frequencies --   1065.9470              1066.5316              1208.3028
 Red. masses --      1.5311                 1.5130                 1.4195
 Frc consts  --      1.0250                 1.0140                 1.2211
 IR Inten    --      5.6138                 1.7140                 4.4375

                     31                     32                     33
                      A                      A                      A
 Frequencies --   1280.5672              1314.5373              1350.7482
 Red. masses --      1.4813                 5.4396                 5.8861
 Frc consts  --      1.4312                 5.5381                 6.3274
 IR Inten    --      0.3312                 3.3698                 3.1235

                     34                     35                     36
                      A                      A                      A
 Frequencies --   1423.4543              1426.6612              1431.8552
 Red. masses --      1.2505                 1.2561                 1.3067
 Frc consts  --      1.4929                 1.5063                 1.5785
 IR Inten    --      1.2447                 0.2283                 0.5692

                     37                     38                     39
                      A                      A                      A
 Frequencies --   1448.5217              1453.6478              1494.7936
 Red. masses --      2.6686                 2.2373                 1.0432
 Frc consts  --      3.2990                 2.7855                 1.3734
 IR Inten    --      7.4107                 7.4393                 6.5020

                     40                     41                     42
                      A                      A                      A
 Frequencies --   1498.3020              1504.0227              1505.7487
 Red. masses --      1.0443                 1.0430                 1.0772
 Frc consts  --      1.3813                 1.3901                 1.4390
 IR Inten    --      4.6700                 5.3345                 2.1692

                     43                     44                     45
                      A                      A                      A
 Frequencies --   1510.4129              1518.5301              1633.0199
 Red. masses --      1.1733                 1.2760                 6.7723
 Frc consts  --      1.5771                 1.7337                10.6407
 IR Inten    --     16.7401                32.2333                10.8681

                     46                     47                     48
                      A                      A                      A
 Frequencies --   1650.1784              3043.3790              3051.7267
 Red. masses --      5.2900                 1.0374                 1.0364
 Frc consts  --      8.4873                 5.6614                 5.6870
 IR Inten    --      0.4012                33.0849                23.0636

                     49                     50                     51
                      A                      A                      A
 Frequencies --   3052.8569              3099.6906              3105.2798
 Red. masses --      1.0412                 1.1007                 1.1010
 Frc consts  --      5.7176                 6.2309                 6.2553
 IR Inten    --     16.7474                17.9126                16.3925

                     52                     53                     54
                      A                      A                      A
 Frequencies --   3112.1224              3129.7860              3135.9901
 Red. masses --      1.1008                 1.1015                 1.1025
 Frc consts  --      6.2817                 6.3572                 6.3881
 IR Inten    --     11.8694                14.5743                15.2979

                     55                     56                     57
                      A                      A                      A
 Frequencies --   3170.6734              3174.5870              3174.8028
 Red. masses --      1.0899                 1.0963                 1.0904
 Frc consts  --      6.4556                 6.5097                 6.4752
 IR Inten    --     18.6720                 4.1510                18.0019

 - Thermochemistry -
 -------------------
 Temperature   298.150 Kelvin.  Pressure   1.00000 Atm.
 Atom     1 has atomic number  6 and mass  12.00000

 Molecular mass:   245.98648 amu.
 Principal axes and moments of inertia in atomic units:
                           1         2         3
     Eigenvalues --  1062.132693813.920214842.55358
           X            1.00000   0.00054   0.00011
           Y           -0.00054   1.00000   0.00000
           Z           -0.00011  -0.00000   1.00000
 This molecule is an asymmetric top.
 Rotational symmetry number  1.
 Warning -- assumption of classical behavior for rotation
           may cause significant error
 Rotational temperatures (Kelvin)      0.08155     0.02271     0.01789
 Rotational constants (GHZ):           1.69917     0.47320     0.37268
    1 imaginary frequencies ignored.
 Zero-point vibrational energy     454122.0 (Joules/Mol)
                                  108.53777 (Kcal/Mol)
 Warning -- explicit consideration of  16 degrees of freedom as
           vibrations may cause significant error
 Vibrational temperatures:     18.49   103.00   248.23   272.52   280.47
          (Kelvin)            307.62   321.72   405.94   438.75   486.66
                              716.12   758.08   786.20   794.10   797.54
                              848.67  1029.20  1255.87  1290.93  1372.12
                             1385.05  1454.70  1499.49  1504.68  1515.55
                             1526.79  1533.66  1534.50  1738.48  1842.45
                             1891.33  1943.43  2048.03  2052.65  2060.12
                             2084.10  2091.48  2150.67  2155.72  2163.95
                             2166.44  2173.15  2184.83  2349.55  2374.24
                             4378.74  4390.75  4392.38  4459.76  4467.81
                             4477.65  4503.06  4511.99  4561.89  4567.52
                             4567.83

 Zero-point correction=                           0.172966 (Hartree/Particle)
 Thermal correction to Energy=                    0.183350
 Thermal correction to Enthalpy=                  0.184294
 Thermal correction to Gibbs Free Energy=         0.134291
 Sum of electronic and zero-point Energies=           -360.856463
 Sum of electronic and thermal Energies=              -360.846079
 Sum of electronic and thermal Enthalpies=            -360.845135
 Sum of electronic and thermal Free Energies=         -360.895137

                     E (Thermal)             CV                S
                      KCal/Mol        Cal/Mol-Kelvin    Cal/Mol-Kelvin
 Total                  115.054             37.603            105.239
 Electronic               0.000              0.000              0.000
 Translational            0.889              2.981             42.401
 Rotational               0.889              2.981             31.351
 Vibrational            113.276             31.641             31.487
 Vibration     1          0.593              1.987              7.512
 Vibration     2          0.598              1.968              4.109
 Vibration     3          0.626              1.876              2.408
 Vibration     4          0.633              1.854              2.234
 Vibration     5          0.636              1.847              2.180
 Vibration     6          0.644              1.820              2.011
 Vibration     7          0.649              1.805              1.930
 Vibration     8          0.681              1.707              1.521
 Vibration     9          0.696              1.664              1.390
 Vibration    10          0.719              1.599              1.220
 Vibration    11          0.853              1.255              0.664
 Vibration    12          0.882              1.190              0.594
 Vibration    13          0.902              1.147              0.552
 Vibration    14          0.907              1.135              0.540
 Vibration    15          0.910              1.130              0.535
 Vibration    16          0.947              1.053              0.467

                           ! Non-Optimized Parameters !
 Normal termination of Gaussian 16 at Tue Sep 17 09:51:05 2024.

 ----------------------------------------------------------------------
 #p M062X/def2tzvp geom=check guess=read scf(xqc,tight) integral(grid=u
 ltrafine) scrf(SMD, solvent=1,4-Dioxane) polar prop=efg volume
 ----------------------------------------------------------------------

 ---
 spe
 ---
 Structure from the checkpoint file:  "smiles_00053_conf_1.chk"
 Charge =  0 Multiplicity = 1

 SCF Done:  E(RM062X) =  -647.189973671     A.U. after   21 cycles

  Exact polarizability:     217.483       0.610     168.939       0.128      -0.011      96.580
 Approx polarizability:     219.318       0.665     185.158       0.106      -0.008     122.826

 Normal termination of Gaussian 16 at Tue Sep 17 10:44:07 2024.
 Gaussian 16:  ES64L-G16RevC.02  7-Dec-2021

 ----------------------------------------------------------------------
 #p M062X/def2tzvp geom=check guess=read scf(xqc,tight) integral(grid=u
 ltrafine) scrf(SMD, solvent=1,4-Dioxane) nmr=giao
 ----------------------------------------------------------------------

 ---
 spe
 ---
 Structure from the checkpoint file:  "smiles_00053_conf_1.chk"
 Charge =  0 Multiplicity = 1

                         Standard orientation:
 ---------------------------------------------------------------------
 Center     Atomic      Atomic             Coordinates (Angstroms)
 Number     Number       Type             X           Y           Z
 ---------------------------------------------------------------------
      1          6           0        4.480400   -0.054108    0.004765
      2          6           0        2.972246   -0.023450   -0.002413
      3          6           0        2.271716    1.177854   -0.002453
      4          6           0        0.867770    1.235399   -0.001055
      5          6           0        0.226767    2.601621   -0.001707
      6          6           0        0.178453    0.018512   -0.000148
      7         53           0       -1.987060    0.003104    0.000853
      8          6           0        0.839181   -1.223898   -0.001140
      9          6           0        0.113437   -2.544049   -0.001742
     10          6           0        2.235642   -1.212368   -0.002520
     11          1           0        4.900138    0.951539   -0.080537
     12          1           0        4.869509   -0.653831   -0.825213
     13          1           0        4.862890   -0.498997    0.930590
     14          1           0        2.821779    2.116047   -0.003907
     15          1           0        0.544270    3.171326    0.878207
     16          1           0       -0.860675    2.555505    0.001398
     17          1           0        0.539283    3.168128   -0.885487
     18          1           0       -0.532230   -2.644626   -0.880091
     19          1           0       -0.530891   -2.645998    0.877440
     20          1           0        0.826196   -3.372026   -0.002903
     21          1           0        2.760240   -2.164647   -0.004228
 ---------------------------------------------------------------------

 SCF Done:  E(RM062X) =  -647.189973671     A.U. after    1 cycles

      1  C    Isotropic =   164.3786   Anisotropy =    41.0325

      2  C    Isotropic =    23.0834   Anisotropy =   226.7617

      3  C    Isotropic =    33.8233   Anisotropy =   166.4265

      4  C    Isotropic =    18.8285   Anisotropy =   210.3277

      5  C    Isotropic =   160.3179   Anisotropy =    40.5941

      6  C    Isotropic =    26.4109   Anisotropy =    76.2598

      7  I    Isotropic =   442.0868   Anisotropy =    51.6962

      8  C    Isotropic =    18.2642   Anisotropy =   210.3046

      9  C    Isotropic =   156.6070   Anisotropy =    36.3901

     10  C    Isotropic =    33.5099   Anisotropy =   166.2496

     11  H    Isotropic =    29.7796   Anisotropy =     7.7843

     12  H    Isotropic =    29.3916   Anisotropy =     8.3179

     13  H    Isotropic =    29.3611   Anisotropy =     8.4723

     14  H    Isotropic =    24.0055   Anisotropy =    10.2495

     15  H    Isotropic =    29.2682   Anisotropy =     9.1305

     16  H    Isotropic =    29.0370   Anisotropy =    10.8287

     17  H    Isotropic =    29.2678   Anisotropy =     9.1254

     18  H    Isotropic =    29.3168   Anisotropy =     6.3344

     19  H    Isotropic =    29.3173   Anisotropy =     6.3387

     20  H    Isotropic =    29.5713   Anisotropy =     9.5768

     21  H    Isotropic =    23.9898   Anisotropy =    10.1173

 The electronic state is 1-A.
 Alpha  occ. eigenvalues --  -10.58890 -10.56204 -10.56119 -10.55223 -10.53850
 Alpha  occ. eigenvalues --  -10.53845 -10.53137 -10.53100 -10.53033  -7.09704
 Alpha  occ. eigenvalues --   -5.09012  -5.08038  -5.08004  -2.05837  -2.05439
 Alpha  occ. eigenvalues --   -2.05420  -2.04608  -2.04607  -0.97428  -0.88612
 Alpha  occ. eigenvalues --   -0.88549  -0.79923  -0.79463  -0.77000  -0.74341
 Alpha  occ. eigenvalues --   -0.66179  -0.64337  -0.55726  -0.54941  -0.50224
 Alpha  occ. eigenvalues --   -0.49751  -0.47906  -0.47885  -0.46976  -0.46637
 Alpha  occ. eigenvalues --   -0.45968  -0.43734  -0.42987  -0.40868  -0.40064
 Alpha  occ. eigenvalues --   -0.37362  -0.34000  -0.31226  -0.29600  -0.28051
 Alpha virt. eigenvalues --    0.00248   0.01586   0.01892   0.07569   0.09127
 Alpha virt. eigenvalues --    0.09507   0.11598   0.12346   0.13017   0.13620
 Alpha virt. eigenvalues --    0.15299   0.15453   0.16494   0.16798   0.16994

 Mulliken charges:
               1
     1  C   -0.499564
     2  C    0.123590
     3  C   -0.239529
     4  C    0.083749
     5  C   -0.477717
     6  C   -0.055823
     7  I   -0.144000
     8  C    0.134335
     9  C   -0.495213
    10  C   -0.237512
    11  H    0.150901
    12  H    0.164830
    13  H    0.167321
    14  H    0.164541
    15  H    0.170237
    16  H    0.156150
    17  H    0.170401
    18  H    0.176584
    19  H    0.176598
    20  H    0.147938
    21  H    0.162183
 Sum of Mulliken charges =  -0.00000

 Dipole moment (field-independent basis, Debye):
    X=              2.3109    Y=              0.0146    Z=              0.0097  Tot=              2.3109
 Quadrupole moment (field-independent basis, Debye-Ang):
   XX=            -75.1470   YY=            -74.4177   ZZ=            -85.3101
   XY=              0.0947   XZ=              0.0443   YZ=             -0.0006

 Normal termination of Gaussian 16 at Tue Sep 17 10:58:53 2024.
