 Gaussian 16, Revision C.02,

 ----------------------------------------------------------------------
 #p B3LYP/6-31G(d,p) EmpiricalDispersion=GD3BJ opt freq scf(xqc,tight)
 integral(grid=ultrafine)
 ----------------------------------------------------------------------

 ----------------------------------
 opt-freq conformers_unique/conf_aj
 ----------------------------------
 Symbolic Z-matrix:
 Charge =  0 Multiplicity = 1

 SCF Done:  E(RB3LYP) =  -3150.41923084     A.U. after   14 cycles
 SCF Done:  E(RB3LYP) =  -3150.42063711     A.U. after   11 cycles
 SCF Done:  E(RB3LYP) =  -3150.42077948     A.U. after   11 cycles
 SCF Done:  E(RB3LYP) =  -3150.42088929     A.U. after   11 cycles
 SCF Done:  E(RB3LYP) =  -3150.42100311     A.U. after   10 cycles
 SCF Done:  E(RB3LYP) =  -3150.42102401     A.U. after   10 cycles
 SCF Done:  E(RB3LYP) =  -3150.42103014     A.U. after   10 cycles
 SCF Done:  E(RB3LYP) =  -3150.42103250     A.U. after    9 cycles
 SCF Done:  E(RB3LYP) =  -3150.42103236     A.U. after    9 cycles
 SCF Done:  E(RB3LYP) =  -3150.42103866     A.U. after    9 cycles
 SCF Done:  E(RB3LYP) =  -3150.42106058     A.U. after   12 cycles
 SCF Done:  E(RB3LYP) =  -3150.42107176     A.U. after   10 cycles
 SCF Done:  E(RB3LYP) =  -3150.42107572     A.U. after   10 cycles
 SCF Done:  E(RB3LYP) =  -3150.42107593     A.U. after    9 cycles
 SCF Done:  E(RB3LYP) =  -3150.42107600     A.U. after    7 cycles
 SCF Done:  E(RB3LYP) =  -3150.42107601     A.U. after    7 cycles
 Optimization completed.
    -- Stationary point found.
 Normal termination of Gaussian 16 at Tue Sep 17 09:55:39 2024.

 ----------------------------------------------------------------------
 #P Geom=AllCheck Guess=TCheck SCRF=Check GenChk RB3LYP/6-31G(d,p) Freq
 ----------------------------------------------------------------------

 Structure from the checkpoint file:  "smiles_00034_conf_9.chk"
 ----------------------------------
 opt-freq conformers_unique/conf_aj
 ----------------------------------
 Charge =  0 Multiplicity = 1

 SCF Done:  E(RB3LYP) =  -3150.42107601     A.U. after    1 cycles

                      1                      2                      3
                      A                      A                      A
 Frequencies --     14.9346                42.3232                64.1633
 Red. masses --      3.5247                 3.1757                 2.3655
 Frc consts  --      0.0005                 0.0034                 0.0057
 IR Inten    --      0.1316                 0.3021                 0.1554

                      4                      5                      6
                      A                      A                      A
 Frequencies --     77.7334               103.7264               126.1956
 Red. masses --      4.6621                 3.3150                 3.4711
 Frc consts  --      0.0166                 0.0210                 0.0326
 IR Inten    --      0.5158                 0.1253                 0.6310

                      7                      8                      9
                      A                      A                      A
 Frequencies --    164.4027               179.9169               232.8148
 Red. masses --      5.1919                 4.6716                 1.8150
 Frc consts  --      0.0827                 0.0891                 0.0580
 IR Inten    --      2.5999                 1.5338                 0.3036

                     10                     11                     12
                      A                      A                      A
 Frequencies --    241.9118               264.7618               278.8324
 Red. masses --      2.0922                 1.3841                 3.5100
 Frc consts  --      0.0721                 0.0572                 0.1608
 IR Inten    --      1.0776                 0.3872                 0.6288

                     13                     14                     15
                      A                      A                      A
 Frequencies --    309.3456               315.3572               358.8448
 Red. masses --      2.1992                 4.7047                 2.8500
 Frc consts  --      0.1240                 0.2757                 0.2162
 IR Inten    --      0.8573                 1.1165                 5.0776

                     16                     17                     18
                      A                      A                      A
 Frequencies --    412.5220               448.2114               449.5187
 Red. masses --      3.3494                 3.3068                 3.2882
 Frc consts  --      0.3358                 0.3914                 0.3915
 IR Inten    --      6.1398                 0.4312                 3.8736

                     19                     20                     21
                      A                      A                      A
 Frequencies --    475.3486               540.7873               609.9383
 Red. masses --      4.4748                 4.8382                 4.9449
 Frc consts  --      0.5957                 0.8336                 1.0839
 IR Inten    --      6.3887                 1.2175                13.5916

                     22                     23                     24
                      A                      A                      A
 Frequencies --    669.7059               698.9949               734.3909
 Red. masses --      6.2835                 3.3064                 3.1659
 Frc consts  --      1.6604                 0.9518                 1.0060
 IR Inten    --      5.3818                19.0101                32.3694

                     25                     26                     27
                      A                      A                      A
 Frequencies --    801.7214               810.8307               818.8485
 Red. masses --      1.4543                 1.1346                 1.2326
 Frc consts  --      0.5507                 0.4395                 0.4870
 IR Inten    --     34.9714                 2.1133                 1.2594

                     28                     29                     30
                      A                      A                      A
 Frequencies --    842.7255               885.1003               915.1479
 Red. masses --      2.4896                 2.6837                 1.7266
 Frc consts  --      1.0417                 1.2387                 0.8520
 IR Inten    --      6.8926                 9.1003                 6.5369

                     31                     32                     33
                      A                      A                      A
 Frequencies --    936.9432               961.9709               992.6732
 Red. masses --      1.3570                 2.3194                 1.3128
 Frc consts  --      0.7019                 1.2646                 0.7622
 IR Inten    --      2.8544                10.6049                 1.3223

                     34                     35                     36
                      A                      A                      A
 Frequencies --   1007.2867              1019.7347              1026.8154
 Red. masses --      3.0573                 5.0657                 3.7430
 Frc consts  --      1.8276                 3.1036                 2.3252
 IR Inten    --      2.4434                 2.3077                60.5964

                     37                     38                     39
                      A                      A                      A
 Frequencies --   1089.1002              1096.7930              1106.5518
 Red. masses --      4.2097                 2.0940                 2.8022
 Frc consts  --      2.9420                 1.4841                 2.0216
 IR Inten    --    141.9046                19.5172                92.8919

                     40                     41                     42
                      A                      A                      A
 Frequencies --   1122.8475              1125.1609              1151.3678
 Red. masses --      2.1386                 1.5828                 2.9918
 Frc consts  --      1.5886                 1.1806                 2.3368
 IR Inten    --    118.7023                 8.0585               131.6327

                     43                     44                     45
                      A                      A                      A
 Frequencies --   1194.2269              1205.9885              1207.7408
 Red. masses --      1.1352                 1.7881                 1.8215
 Frc consts  --      0.9539                 1.5322                 1.5654
 IR Inten    --      8.1680                24.3983                28.5659

                     46                     47                     48
                      A                      A                      A
 Frequencies --   1222.2424              1304.2340              1331.7951
 Red. masses --      2.5358                 1.4410                 1.1354
 Frc consts  --      2.2320                 1.4442                 1.1865
 IR Inten    --    104.3366                20.5262                24.0326

                     49                     50                     51
                      A                      A                      A
 Frequencies --   1341.8447              1354.8104              1376.9498
 Red. masses --      1.1071                 4.4488                 1.3889
 Frc consts  --      1.1745                 4.8112                 1.5515
 IR Inten    --      1.3586                 0.4938                87.7656

                     52                     53                     54
                      A                      A                      A
 Frequencies --   1401.3083              1406.8577              1419.8406
 Red. masses --      1.1831                 1.2299                 1.2518
 Frc consts  --      1.3688                 1.4343                 1.4869
 IR Inten    --     13.9498                 1.8163                 4.7679

                     55                     56                     57
                      A                      A                      A
 Frequencies --   1428.4039              1437.5032              1464.6340
 Red. masses --      1.2973                 1.3193                 2.5647
 Frc consts  --      1.5596                 1.6062                 3.2415
 IR Inten    --     18.5278                19.8318                27.9963

                     58                     59                     60
                      A                      A                      A
 Frequencies --   1497.3196              1498.7216              1506.9213
 Red. masses --      1.0427                 1.0427                 1.0637
 Frc consts  --      1.3773                 1.3799                 1.4232
 IR Inten    --      0.2972                 5.4585                 1.1111

                     61                     62                     63
                      A                      A                      A
 Frequencies --   1511.5888              1515.0295              1527.9972
 Red. masses --      1.0965                 2.2907                 1.0805
 Frc consts  --      1.4762                 3.0978                 1.4863
 IR Inten    --      2.4787                13.5486                11.5132

                     64                     65                     66
                      A                      A                      A
 Frequencies --   1533.0964              1628.5911              1653.3785
 Red. masses --      1.0619                 6.3487                 6.1581
 Frc consts  --      1.4705                 9.9211                 9.9184
 IR Inten    --      0.8676                31.4335                 8.7761

                     67                     68                     69
                      A                      A                      A
 Frequencies --   3002.9964              3011.4359              3048.5894
 Red. masses --      1.0719                 1.0814                 1.0554
 Frc consts  --      5.6951                 5.7783                 5.7794
 IR Inten    --     26.2901                64.7518                30.6294

                     70                     71                     72
                      A                      A                      A
 Frequencies --   3051.6225              3054.4970              3094.4802
 Red. masses --      1.0422                 1.0387                 1.0977
 Frc consts  --      5.7180                 5.7096                 6.1930
 IR Inten    --     20.3546                23.1023                39.2110

                     73                     74                     75
                      A                      A                      A
 Frequencies --   3094.6498              3120.9908              3128.6616
 Red. masses --      1.1032                 1.1002                 1.0988
 Frc consts  --      6.2248                 6.3141                 6.3368
 IR Inten    --     12.1470                53.2380                17.1534

                     76                     77                     78
                      A                      A                      A
 Frequencies --   3152.4566              3158.5675              3191.6910
 Red. masses --      1.1033                 1.1020                 1.0871
 Frc consts  --      6.4599                 6.4773                 6.5247
 IR Inten    --     18.7327                20.8134                 6.6276

                     79                     80                     81
                      A                      A                      A
 Frequencies --   3209.3959              3223.8820              3249.7272
 Red. masses --      1.0931                 1.0948                 1.0911
 Frc consts  --      6.6339                 6.7042                 6.7891
 IR Inten    --      7.2131                 4.7096                 1.2967

 - Thermochemistry -
 -------------------
 Temperature   298.150 Kelvin.  Pressure   1.00000 Atm.
 Atom     1 has atomic number  6 and mass  12.00000

 Molecular mass:   258.02554 amu.
 Principal axes and moments of inertia in atomic units:
                           1         2         3
     Eigenvalues --  2114.379137352.688298256.21652
           X            0.99910   0.04056  -0.01242
           Y           -0.04008   0.99853   0.03653
           Z            0.01388  -0.03600   0.99926
 This molecule is an asymmetric top.
 Rotational symmetry number  1.
 Warning -- assumption of classical behavior for rotation
           may cause significant error
 Rotational temperatures (Kelvin)      0.04096     0.01178     0.01049
 Rotational constants (GHZ):           0.85356     0.24545     0.21859
 Zero-point vibrational energy     635761.2 (Joules/Mol)
                                  151.95057 (Kcal/Mol)
 Warning -- explicit consideration of  21 degrees of freedom as
           vibrations may cause significant error
 Vibrational temperatures:     21.49    60.89    92.32   111.84   149.24
          (Kelvin)            181.57   236.54   258.86   334.97   348.06
                              380.93   401.18   445.08   453.73   516.30
                              593.53   644.88   646.76   683.92   778.07
                              877.57   963.56  1005.70  1056.62  1153.50
                             1166.60  1178.14  1212.49  1273.46  1316.69
                             1348.05  1384.06  1428.24  1449.26  1467.17
                             1477.36  1566.97  1578.04  1592.08  1615.53
                             1618.86  1656.56  1718.23  1735.15  1737.67
                             1758.53  1876.50  1916.16  1930.62  1949.27
                             1981.12  2016.17  2024.15  2042.83  2055.15
                             2068.25  2107.28  2154.31  2156.33  2168.12
                             2174.84  2179.79  2198.45  2205.78  2343.18
                             2378.84  4320.64  4332.78  4386.24  4390.60
                             4394.74  4452.27  4452.51  4490.41  4501.45
                             4535.68  4544.47  4592.13  4617.60  4638.45
                             4675.63

 Zero-point correction=                           0.242149 (Hartree/Particle)
 Thermal correction to Energy=                    0.256757
 Thermal correction to Enthalpy=                  0.257702
 Thermal correction to Gibbs Free Energy=         0.197901
 Sum of electronic and zero-point Energies=          -3150.178927
 Sum of electronic and thermal Energies=             -3150.164319
 Sum of electronic and thermal Enthalpies=           -3150.163374
 Sum of electronic and thermal Free Energies=        -3150.223175

                     E (Thermal)             CV                S
                      KCal/Mol        Cal/Mol-Kelvin    Cal/Mol-Kelvin
 Total                  161.118             53.538            125.862
 Electronic               0.000              0.000              0.000
 Translational            0.889              2.981             42.543
 Rotational               0.889              2.981             33.217
 Vibrational            159.340             47.576             50.101
 Vibration     1          0.593              1.986              7.214
 Vibration     2          0.595              1.980              5.147
 Vibration     3          0.597              1.971              4.325
 Vibration     4          0.599              1.964              3.947
 Vibration     5          0.605              1.946              3.383
 Vibration     6          0.611              1.927              3.003
 Vibration     7          0.623              1.886              2.499
 Vibration     8          0.629              1.867              2.329
 Vibration     9          0.654              1.791              1.857
 Vibration    10          0.658              1.776              1.789
 Vibration    11          0.671              1.738              1.630
 Vibration    12          0.679              1.713              1.541
 Vibration    13          0.699              1.656              1.366
 Vibration    14          0.703              1.644              1.334
 Vibration    15          0.734              1.557              1.127
 Vibration    16          0.776              1.443              0.918
 Vibration    17          0.807              1.365              0.801
 Vibration    18          0.808              1.362              0.797
 Vibration    19          0.832              1.305              0.723
 Vibration    20          0.896              1.160              0.564
 Vibration    21          0.969              1.011              0.433

 Optimization completed.
    -- Stationary point found.
 Normal termination of Gaussian 16 at Tue Sep 17 09:58:56 2024.

 ----------------------------------------------------------------------
 #p M062X/def2tzvp geom=check guess=read scf(xqc,tight) integral(grid=u
 ltrafine) scrf(SMD, solvent=1,4-Dioxane) polar prop=efg volume
 ----------------------------------------------------------------------

 ---
 spe
 ---
 Structure from the checkpoint file:  "smiles_00034_conf_9.chk"
 Charge =  0 Multiplicity = 1

 SCF Done:  E(RM062X) =  -3152.80840812     A.U. after   11 cycles

 The electronic state is 1-A.
 Alpha  occ. eigenvalues -- -485.37336 -63.35815 -57.17759 -57.17525 -57.17518
 Alpha  occ. eigenvalues --  -19.63417 -19.63025 -10.64498 -10.60328 -10.58397
 Alpha  occ. eigenvalues --  -10.57696 -10.55937 -10.55571 -10.55378 -10.55288
 Alpha  occ. eigenvalues --  -10.54924 -10.52013 -10.51605  -9.02457  -6.84859
 Alpha  occ. eigenvalues --   -6.83994  -6.83972  -2.88235  -2.87923  -2.87897
 Alpha  occ. eigenvalues --   -2.87091  -2.87091  -1.19202  -1.13075  -0.98115
 Alpha  occ. eigenvalues --   -0.90338  -0.87675  -0.84700  -0.84152  -0.81701
 Alpha  occ. eigenvalues --   -0.76928  -0.70976  -0.70679  -0.68098  -0.65130
 Alpha  occ. eigenvalues --   -0.60139  -0.58618  -0.57962  -0.55165  -0.53253
 Alpha  occ. eigenvalues --   -0.52152  -0.51061  -0.50307  -0.48777  -0.48230
 Alpha  occ. eigenvalues --   -0.47226  -0.46335  -0.45290  -0.44066  -0.43858
 Alpha  occ. eigenvalues --   -0.42841  -0.40916  -0.40312  -0.39512  -0.37987
 Alpha  occ. eigenvalues --   -0.37045  -0.35313  -0.34633  -0.33837  -0.31686
 Alpha  occ. eigenvalues --   -0.29713
 Alpha virt. eigenvalues --    0.00388   0.01026   0.03823   0.07626   0.08930
 Alpha virt. eigenvalues --    0.09302   0.10267   0.10626   0.12205   0.12389
 Alpha virt. eigenvalues --    0.12820   0.13516   0.14550   0.14862   0.15287

 Mulliken charges:
               1
     1  C   -0.476957
     2  C   -0.089947
     3  O   -0.318525
     4  C    0.146709
     5  O   -0.332500
     6  C   -0.120433
     7  C   -0.451122
     8  C    0.031789
     9  C   -0.229900
    10  C   -0.133152
    11  C   -0.176504
    12  C    0.068619
    13  Br  -0.116906
    14  C   -0.198361
    15  H    0.152385
    16  H    0.167838
    17  H    0.150118
    18  H    0.143388
    19  H    0.151019
    20  H    0.150613
    21  H    0.141685
    22  H    0.145261
    23  H    0.169778
    24  H    0.151055
    25  H    0.152903
    26  H    0.181706
    27  H    0.166590
    28  H    0.178743
    29  H    0.194108
 Sum of Mulliken charges =  -0.00000

 Dipole moment (field-independent basis, Debye):
    X=             -1.8022    Y=              0.9650    Z=             -0.6517  Tot=              2.1457
 Quadrupole moment (field-independent basis, Debye-Ang):
   XX=            -98.1088   YY=            -89.9001   ZZ=            -96.2934
   XY=              7.3213   XZ=              0.2552   YZ=              1.2257

  Exact polarizability:     215.518      -2.792     184.553       6.271      -8.897     134.141
 Approx polarizability:     213.186      -8.551     205.922      11.663     -13.103     153.035

 Normal termination of Gaussian 16 at Tue Sep 17 11:28:35 2024.
 Gaussian 16:  ES64L-G16RevC.02  7-Dec-2021

 ----------------------------------------------------------------------
 #p M062X/def2tzvp geom=check guess=read scf(xqc,tight) integral(grid=u
 ltrafine) scrf(SMD, solvent=1,4-Dioxane) nmr=giao
 ----------------------------------------------------------------------

 ---
 spe
 ---
 Structure from the checkpoint file:  "smiles_00034_conf_9.chk"
 Charge =  0 Multiplicity = 1

                         Standard orientation:
 ---------------------------------------------------------------------
 Center     Atomic      Atomic             Coordinates (Angstroms)
 Number     Number       Type             X           Y           Z
 ---------------------------------------------------------------------
      1          6           0       -3.097151    0.330907    2.210062
      2          6           0       -2.479314    1.373524    1.287285
      3          8           0       -2.686376    1.102465   -0.107815
      4          6           0       -1.773110    0.223140   -0.733314
      5          8           0       -1.870671   -1.108525   -0.293066
      6          6           0       -2.840437   -1.908093   -0.974753
      7          6           0       -4.280802   -1.618573   -0.571599
      8          6           0       -0.329820    0.686749   -0.589662
      9          6           0       -0.020552    2.025708   -0.855662
     10          6           0        1.294676    2.473293   -0.766527
     11          6           0        2.319052    1.594179   -0.409516
     12          6           0        1.995085    0.266709   -0.147898
     13         35           0        3.385771   -0.951671    0.345920
     14          6           0        0.686144   -0.201193   -0.235370
     15          1           0       -4.163271    0.211389    1.997666
     16          1           0       -2.607663   -0.636308    2.086893
     17          1           0       -2.988825    0.651289    3.252232
     18          1           0       -2.945798    2.349960    1.450893
     19          1           0       -1.408238    1.481189    1.493312
     20          1           0       -2.061719    0.276309   -1.793299
     21          1           0       -2.713916   -1.777901   -2.060257
     22          1           0       -2.574039   -2.941430   -0.734139
     23          1           0       -4.547186   -0.580793   -0.782532
     24          1           0       -4.958422   -2.277319   -1.125451
     25          1           0       -4.425259   -1.795471    0.497161
     26          1           0       -0.819654    2.710734   -1.119112
     27          1           0        1.531005    3.512406   -0.973465
     28          1           0        3.346226    1.931063   -0.336339
     29          1           0        0.448529   -1.236241   -0.031996
 ---------------------------------------------------------------------

 SCF Done:  E(RM062X) =  -3152.80840812     A.U. after    1 cycles
