 Gaussian 16, Revision C.02,

 ----------------------------------------------------------------------
 #p B3LYP/6-31G(d,p) EmpiricalDispersion=GD3BJ opt freq scf(xqc,tight)
 integral(grid=ultrafine)
 ----------------------------------------------------------------------

 ----------------------------------
 opt-freq conformers_unique/conf_aa
 ----------------------------------
 Symbolic Z-matrix:
 Charge =  0 Multiplicity = 1

 SCF Done:  E(RB3LYP) =  -806.406447646     A.U. after   14 cycles
 SCF Done:  E(RB3LYP) =  -806.407526702     A.U. after   11 cycles
 SCF Done:  E(RB3LYP) =  -806.407579801     A.U. after    9 cycles
 SCF Done:  E(RB3LYP) =  -806.407588225     A.U. after    9 cycles
 SCF Done:  E(RB3LYP) =  -806.407589204     A.U. after    8 cycles
 Optimization completed.
    -- Stationary point found.
 Normal termination of Gaussian 16 at Tue Sep 17 09:50:59 2024.

 ----------------------------------------------------------------------
 #P Geom=AllCheck Guess=TCheck SCRF=Check GenChk RB3LYP/6-31G(d,p) Freq
 ----------------------------------------------------------------------

 Structure from the checkpoint file:  "smiles_00125_conf_0.chk"
 ----------------------------------
 opt-freq conformers_unique/conf_aa
 ----------------------------------
 Charge =  0 Multiplicity = 1

 SCF Done:  E(RB3LYP) =  -806.407589204     A.U. after    1 cycles

                      1                      2                      3
                      A                      A                      A
 Frequencies --     94.8288               176.5662               185.3968
 Red. masses --      3.1823                 3.6833                 4.8779
 Frc consts  --      0.0169                 0.0677                 0.0988
 IR Inten    --      5.0052                 0.0498                 1.8871

                      4                      5                      6
                      A                      A                      A
 Frequencies --    223.1528               281.3479               340.4590
 Red. masses --      2.2498                 1.5693                 4.2074
 Frc consts  --      0.0660                 0.0732                 0.2873
 IR Inten    --      0.6358                 0.4184                 1.9783

                      7                      8                      9
                      A                      A                      A
 Frequencies --    409.8775               454.4458               462.6734
 Red. masses --     11.1757                 3.1422                 4.9487
 Frc consts  --      1.1062                 0.3823                 0.6242
 IR Inten    --      4.3300                 1.6807                 0.1429

                     10                     11                     12
                      A                      A                      A
 Frequencies --    563.5895               584.0245               690.0544
 Red. masses --      4.9073                 5.1865                 2.5384
 Frc consts  --      0.9184                 1.0423                 0.7122
 IR Inten    --      5.1564                 0.2065                 5.8562

                     13                     14                     15
                      A                      A                      A
 Frequencies --    692.4630               784.2477               850.2100
 Red. masses --      7.1411                 1.3316                 1.4760
 Frc consts  --      2.0175                 0.4825                 0.6286
 IR Inten    --      5.4596                37.0129                25.5494

                     16                     17                     18
                      A                      A                      A
 Frequencies --    879.6060               886.9893               973.6030
 Red. masses --      5.9123                 1.3936                 1.2637
 Frc consts  --      2.6952                 0.6460                 0.7057
 IR Inten    --     84.3142                 0.9224                 0.3476

                     19                     20                     21
                      A                      A                      A
 Frequencies --   1012.3690              1076.8886              1099.9303
 Red. masses --      5.6008                 6.0122                 1.7824
 Frc consts  --      3.3820                 4.1079                 1.2705
 IR Inten    --      7.4220                47.2419                17.8027

                     22                     23                     24
                      A                      A                      A
 Frequencies --   1127.6218              1179.6040              1186.7240
 Red. masses --      1.6700                 1.2737                 1.1136
 Frc consts  --      1.2511                 1.0442                 0.9240
 IR Inten    --     18.1547                 0.6848                 7.0862

                     25                     26                     27
                      A                      A                      A
 Frequencies --   1213.8889              1295.1235              1317.2682
 Red. masses --      1.3902                 2.7861                 1.8725
 Frc consts  --      1.2070                 2.7534                 1.9143
 IR Inten    --      4.0824               159.5168                19.9522

                     28                     29                     30
                      A                      A                      A
 Frequencies --   1370.9826              1465.2023              1491.6797
 Red. masses --      4.1420                 2.2522                 1.4096
 Frc consts  --      4.5869                 2.8487                 1.8479
 IR Inten    --     42.1689                20.0251                29.8039

                     31                     32                     33
                      A                      A                      A
 Frequencies --   1505.7626              1519.0084              1534.6578
 Red. masses --      1.0459                 1.1246                 2.1094
 Frc consts  --      1.3971                 1.5289                 2.9270
 IR Inten    --      5.9423                60.6175                59.2864

                     34                     35                     36
                      A                      A                      A
 Frequencies --   1631.1649              1659.3390              3019.6820
 Red. masses --      6.4804                 6.1856                 1.0347
 Frc consts  --     10.1590                10.0346                 5.5590
 IR Inten    --     74.5824               119.3233                45.6444

                     37                     38                     39
                      A                      A                      A
 Frequencies --   3082.9961              3156.1359              3195.8773
 Red. masses --      1.1063                 1.1002                 1.0881
 Frc consts  --      6.1952                 6.4573                 6.5478
 IR Inten    --     38.4348                22.4927                 9.3445

                     40                     41                     42
                      A                      A                      A
 Frequencies --   3221.4169              3230.9824              3247.8554
 Red. masses --      1.0931                 1.0948                 1.0908
 Frc consts  --      6.6834                 6.7335                 6.7794
 IR Inten    --      4.7551                 2.3280                 1.2484

 - Thermochemistry -
 -------------------
 Temperature   298.150 Kelvin.  Pressure   1.00000 Atm.
 Atom     1 has atomic number  6 and mass  12.00000

 Molecular mass:   142.01854 amu.
 Principal axes and moments of inertia in atomic units:
                           1         2         3
     Eigenvalues --   796.218381883.083642667.80105
           X            0.99787  -0.06525  -0.00001
           Y            0.06525   0.99787   0.00001
           Z            0.00001  -0.00001   1.00000
 This molecule is an asymmetric top.
 Rotational symmetry number  1.
 Warning -- assumption of classical behavior for rotation
           may cause significant error
 Rotational temperatures (Kelvin)      0.10878     0.04600     0.03247
 Rotational constants (GHZ):           2.26664     0.95840     0.67649
 Zero-point vibrational energy     325238.9 (Joules/Mol)
                                   77.73396 (Kcal/Mol)
 Warning -- explicit consideration of  11 degrees of freedom as
           vibrations may cause significant error
 Vibrational temperatures:    136.44   254.04   266.74   321.07   404.80
          (Kelvin)            489.84   589.72   653.85   665.68   810.88
                              840.28   992.83   996.30  1128.36  1223.26
                             1265.56  1276.18  1400.80  1456.57  1549.40
                             1582.55  1622.40  1697.19  1707.43  1746.52
                             1863.39  1895.26  1972.54  2108.10  2146.19
                             2166.46  2185.51  2208.03  2346.88  2387.42
                             4344.65  4435.74  4540.98  4598.15  4634.90
                             4648.66  4672.94

 Zero-point correction=                           0.123877 (Hartree/Particle)
 Thermal correction to Energy=                    0.131899
 Thermal correction to Enthalpy=                  0.132843
 Thermal correction to Gibbs Free Energy=         0.090634
 Sum of electronic and zero-point Energies=           -806.283712
 Sum of electronic and thermal Energies=              -806.275690
 Sum of electronic and thermal Enthalpies=            -806.274746
 Sum of electronic and thermal Free Energies=         -806.316955

                     E (Thermal)             CV                S
                      KCal/Mol        Cal/Mol-Kelvin    Cal/Mol-Kelvin
 Total                   82.768             30.155             88.836
 Electronic               0.000              0.000              0.000
 Translational            0.889              2.981             40.764
 Rotational               0.889              2.981             29.771
 Vibrational             80.990             24.194             18.301
 Vibration     1          0.603              1.953              3.558
 Vibration     2          0.628              1.871              2.364
 Vibration     3          0.631              1.860              2.273
 Vibration     4          0.649              1.806              1.933
 Vibration     5          0.681              1.708              1.525
 Vibration     6          0.720              1.595              1.210
 Vibration     7          0.774              1.449              0.927
 Vibration     8          0.813              1.351              0.782
 Vibration     9          0.820              1.333              0.758
 Vibration    10          0.919              1.110              0.517
 Vibration    11          0.941              1.066              0.478

 Optimization completed.
    -- Stationary point found.
 Normal termination of Gaussian 16 at Tue Sep 17 09:51:34 2024.

 ----------------------------------------------------------------------
 #p M062X/def2tzvp geom=check guess=read scf(xqc,tight) integral(grid=u
 ltrafine) scrf(SMD, solvent=1,4-Dioxane) polar prop=efg volume
 ----------------------------------------------------------------------

 ---
 spe
 ---
 Structure from the checkpoint file:  "smiles_00125_conf_0.chk"
 Charge =  0 Multiplicity = 1

 SCF Done:  E(RM062X) =  -806.360292175     A.U. after   12 cycles

  Exact polarizability:     141.292       1.091     127.098       0.001      -0.000      65.036
 Approx polarizability:     149.785       4.617     139.105       0.000       0.000      78.904

 Normal termination of Gaussian 16 at Tue Sep 17 10:07:49 2024.
 Gaussian 16:  ES64L-G16RevC.02  7-Dec-2021

 ----------------------------------------------------------------------
 #p M062X/def2tzvp geom=check guess=read scf(xqc,tight) integral(grid=u
 ltrafine) scrf(SMD, solvent=1,4-Dioxane) nmr=giao
 ----------------------------------------------------------------------

 ---
 spe
 ---
 Structure from the checkpoint file:  "smiles_00125_conf_0.chk"
 Charge =  0 Multiplicity = 1

                         Standard orientation:
 ---------------------------------------------------------------------
 Center     Atomic      Atomic             Coordinates (Angstroms)
 Number     Number       Type             X           Y           Z
 ---------------------------------------------------------------------
      1          6           0        2.779006   -1.540420    0.000075
      2          8           0        2.532217   -0.142400   -0.000010
      3          6           0        1.237544    0.279664   -0.000006
      4          6           0        1.047487    1.669047   -0.000002
      5          6           0       -0.239770    2.188501   -0.000004
      6          6           0       -1.358486    1.349325   -0.000009
      7          6           0       -1.144825   -0.023314   -0.000013
      8         17           0       -2.529514   -1.110727   -0.000021
      9          6           0        0.134465   -0.580836   -0.000013
     10          1           0        3.863306   -1.654248    0.000128
     11          1           0        2.363783   -2.022386   -0.893729
     12          1           0        2.363702   -2.022291    0.893893
     13          1           0        1.920678    2.311243    0.000004
     14          1           0       -0.382128    3.264564   -0.000001
     15          1           0       -2.364961    1.748774   -0.000010
     16          1           0        0.247115   -1.655904   -0.000021
 ---------------------------------------------------------------------

 SCF Done:  E(RM062X) =  -806.360292175     A.U. after    1 cycles

      1  C    Isotropic =   129.4969   Anisotropy =    73.4546

      2  O    Isotropic =   222.2584   Anisotropy =    96.1053

      3  C    Isotropic =     1.5925   Anisotropy =   165.0404

      4  C    Isotropic =    49.4932   Anisotropy =   177.7402

      5  C    Isotropic =    33.0212   Anisotropy =   216.5833

      6  C    Isotropic =    44.7463   Anisotropy =   172.0383

      7  C    Isotropic =    20.4995   Anisotropy =   144.0929

      8  Cl   Isotropic =   676.3168   Anisotropy =   520.8658

      9  C    Isotropic =    57.1922   Anisotropy =   157.5368

     10  H    Isotropic =    27.8084   Anisotropy =     8.2384

     11  H    Isotropic =    28.2151   Anisotropy =     7.7196

     12  H    Isotropic =    28.2152   Anisotropy =     7.7195

     13  H    Isotropic =    24.2234   Anisotropy =     6.6487

     14  H    Isotropic =    23.7992   Anisotropy =     5.5610

     15  H    Isotropic =    24.1183   Anisotropy =     8.1104

     16  H    Isotropic =    24.3362   Anisotropy =    11.4904

 The electronic state is 1-A.
 Alpha  occ. eigenvalues -- -102.64552 -19.66248 -10.61480 -10.60967 -10.58924
 Alpha  occ. eigenvalues --  -10.55375 -10.55284 -10.54746 -10.54413  -9.80800
 Alpha  occ. eigenvalues --   -7.52995  -7.52489  -7.52476  -1.19629  -0.99225
 Alpha  occ. eigenvalues --   -0.93398  -0.85658  -0.83915  -0.78916  -0.69443
 Alpha  occ. eigenvalues --   -0.68106  -0.61175  -0.56967  -0.56413  -0.55256
 Alpha  occ. eigenvalues --   -0.52060  -0.49641  -0.48991  -0.47063  -0.44194
 Alpha  occ. eigenvalues --   -0.43527  -0.42426  -0.40309  -0.38080  -0.37875
 Alpha  occ. eigenvalues --   -0.31021  -0.28401
 Alpha virt. eigenvalues --    0.01030   0.02551   0.06242   0.08259   0.10685
 Alpha virt. eigenvalues --    0.11505   0.12754   0.13447   0.14124   0.15383
 Alpha virt. eigenvalues --    0.16349   0.16841   0.18321   0.20451   0.23146

 Mulliken charges:
               1
     1  C   -0.309853
     2  O   -0.284025
     3  C    0.299697
     4  C   -0.236922
     5  C   -0.127384
     6  C   -0.224856
     7  C    0.080967
     8  Cl  -0.104836
     9  C   -0.273530
    10  H    0.165422
    11  H    0.161549
    12  H    0.161550
    13  H    0.169830
    14  H    0.165798
    15  H    0.171779
    16  H    0.184813
 Sum of Mulliken charges =  -0.00000

 Dipole moment (field-independent basis, Debye):
    X=              1.7395    Y=             -0.2377    Z=              0.0001  Tot=              1.7557
 Quadrupole moment (field-independent basis, Debye-Ang):
   XX=            -59.1956   YY=            -51.4458   ZZ=            -63.0716
   XY=             -6.9201   XZ=              0.0003   YZ=             -0.0001

 Normal termination of Gaussian 16 at Tue Sep 17 10:13:21 2024.
