 Gaussian 16, Revision C.02,

 ----------------------------------------------------------------------
 #p B3LYP/6-31G(d,p) EmpiricalDispersion=GD3BJ opt freq scf(xqc,tight)
 integral(grid=ultrafine)
 ----------------------------------------------------------------------

 ----------------------------------
 opt-freq conformers_unique/conf_ai
 ----------------------------------
 Symbolic Z-matrix:
 Charge =  0 Multiplicity = 1

 SCF Done:  E(RB3LYP) =  -3630.84478164     A.U. after   15 cycles
 SCF Done:  E(RB3LYP) =  -3630.84719037     A.U. after   13 cycles
 SCF Done:  E(RB3LYP) =  -3630.84717544     A.U. after   13 cycles
 SCF Done:  E(RB3LYP) =  -3630.84735171     A.U. after   12 cycles
 SCF Done:  E(RB3LYP) =  -3630.84739195     A.U. after   11 cycles
 SCF Done:  E(RB3LYP) =  -3630.84738546     A.U. after   11 cycles
 SCF Done:  E(RB3LYP) =  -3630.84739984     A.U. after   11 cycles
 SCF Done:  E(RB3LYP) =  -3630.84740082     A.U. after    9 cycles
 SCF Done:  E(RB3LYP) =  -3630.84740084     A.U. after    8 cycles
 SCF Done:  E(RB3LYP) =  -3630.84740090     A.U. after    7 cycles
 SCF Done:  E(RB3LYP) =  -3630.84740090     A.U. after    7 cycles
 Optimization completed.
    -- Stationary point found.
 Normal termination of Gaussian 16 at Tue Sep 17 09:45:48 2024.

 ----------------------------------------------------------------------
 #P Geom=AllCheck Guess=TCheck SCRF=Check GenChk RB3LYP/6-31G(d,p) Freq
 ----------------------------------------------------------------------

 Structure from the checkpoint file:  "smiles_00068_conf_8.chk"
 ----------------------------------
 opt-freq conformers_unique/conf_ai
 ----------------------------------
 Charge =  0 Multiplicity = 1

 SCF Done:  E(RB3LYP) =  -3630.84740090     A.U. after    1 cycles

                      1                      2                      3
                      A                      A                      A
 Frequencies --     14.9160                40.9291                56.4928
 Red. masses --     17.2371                17.1862                17.4662
 Frc consts  --      0.0023                 0.0170                 0.0328
 IR Inten    --      0.4142                 0.2125                 0.5882

                      4                      5                      6
                      A                      A                      A
 Frequencies --    112.8602               123.0810               155.5024
 Red. masses --     14.9676                10.7694                15.1832
 Frc consts  --      0.1123                 0.0961                 0.2163
 IR Inten    --      3.7934                 3.5575                 0.5476

                      7                      8                      9
                      A                      A                      A
 Frequencies --    186.6044               212.4147               275.5238
 Red. masses --      5.1240                 5.2467                15.2881
 Frc consts  --      0.1051                 0.1395                 0.6838
 IR Inten    --      1.1569                 1.5275                 0.3153

                     10                     11                     12
                      A                      A                      A
 Frequencies --    300.7617               321.0586               361.9490
 Red. masses --      9.7515                15.0930                 9.3966
 Frc consts  --      0.5197                 0.9166                 0.7253
 IR Inten    --      2.9689                 1.8162                 0.2255

                     13                     14                     15
                      A                      A                      A
 Frequencies --    404.9400               444.8302               455.0589
 Red. masses --      6.4364                12.5258                16.1648
 Frc consts  --      0.6218                 1.4603                 1.9722
 IR Inten    --      3.7175                 1.9360                 4.3246

                     16                     17                     18
                      A                      A                      A
 Frequencies --    466.1370               529.4127               532.9595
 Red. masses --      8.5812                 8.8326                17.8489
 Frc consts  --      1.0986                 1.4586                 2.9871
 IR Inten    --      0.2179                 1.3175                 1.5103

                     19                     20                     21
                      A                      A                      A
 Frequencies --    571.4785               585.8103               621.5433
 Red. masses --      8.7820                 7.3505                 7.0434
 Frc consts  --      1.6898                 1.4862                 1.6032
 IR Inten    --      2.5363                 0.2617                 1.4781

                     22                     23                     24
                      A                      A                      A
 Frequencies --    695.0521               756.5463               785.4558
 Red. masses --      2.4295                17.5322                11.0302
 Frc consts  --      0.6915                 5.9123                 4.0094
 IR Inten    --     15.9418                21.9859                40.1035

                     25                     26                     27
                      A                      A                      A
 Frequencies --    885.3566               904.0596               925.1401
 Red. masses --      9.7967                 1.5729                 1.3663
 Frc consts  --      4.5245                 0.7574                 0.6890
 IR Inten    --     17.9691                19.2604                 0.4135

                     28                     29                     30
                      A                      A                      A
 Frequencies --    933.0589              1015.7456              1121.9546
 Red. masses --      1.3833                 6.1561                 8.0816
 Frc consts  --      0.7096                 3.7422                 5.9937
 IR Inten    --      3.0519                 3.3509               397.6884

                     31                     32                     33
                      A                      A                      A
 Frequencies --   1136.0406              1147.6250              1200.0367
 Red. masses --      1.7874                 1.7304                12.4184
 Frc consts  --      1.3591                 1.3427                10.5367
 IR Inten    --     10.0198                54.1856               209.7034

                     34                     35                     36
                      A                      A                      A
 Frequencies --   1231.9079              1234.3534              1291.8529
 Red. masses --     12.2984                 4.2703                 1.4965
 Frc consts  --     10.9965                 3.8334                 1.4715
 IR Inten    --    225.1164                25.0131                 0.4213

                     37                     38                     39
                      A                      A                      A
 Frequencies --   1342.8932              1446.4830              1458.2046
 Red. masses --      3.6529                 3.0532                 3.3590
 Frc consts  --      3.8812                 3.7638                 4.2082
 IR Inten    --      0.3580                22.6434                12.1864

                     40                     41                     42
                      A                      A                      A
 Frequencies --   1601.7462              1632.9350              2358.3376
 Red. masses --      5.8876                 6.0952                12.6794
 Frc consts  --      8.8997                 9.5758                41.5491
 IR Inten    --     63.0183                 9.7701                14.6343

                     43                     44                     45
                      A                      A                      A
 Frequencies --   3234.2425              3236.8690              3242.8013
 Red. masses --      1.0930                 1.0932                 1.0927
 Frc consts  --      6.7363                 6.7481                 6.7702
 IR Inten    --      1.1232                 1.1969                 2.5876

 - Thermochemistry -
 -------------------
 Temperature   298.150 Kelvin.  Pressure   1.00000 Atm.
 Atom     1 has atomic number  7 and mass  14.00307

 Molecular mass:   280.91217 amu.
 Principal axes and moments of inertia in atomic units:
                           1         2         3
     Eigenvalues --  3438.933436377.642019050.82840
           X            0.99901   0.04418   0.00452
           Y           -0.04419   0.99902   0.00264
           Z           -0.00440  -0.00283   0.99999
 This molecule is an asymmetric top.
 Rotational symmetry number  1.
 Warning -- assumption of classical behavior for rotation
           may cause significant error
 Rotational temperatures (Kelvin)      0.02519     0.01358     0.00957
 Rotational constants (GHZ):           0.52480     0.28298     0.19940
 Zero-point vibrational energy     248781.2 (Joules/Mol)
                                   59.46012 (Kcal/Mol)
 Warning -- explicit consideration of  20 degrees of freedom as
           vibrations may cause significant error
 Vibrational temperatures:     21.46    58.89    81.28   162.38   177.09
          (Kelvin)            223.73   268.48   305.62   396.42   432.73
                              461.93   520.76   582.62   640.01   654.73
                              670.67   761.71   766.81   822.23   842.85
                              894.26  1000.02  1088.50  1130.10  1273.83
                             1300.74  1331.07  1342.46  1461.43  1614.24
                             1634.51  1651.18  1726.59  1772.44  1775.96
                             1858.69  1932.12  2081.17  2098.03  2304.56
                             2349.43  3393.12  4653.35  4657.13  4665.67

 Zero-point correction=                           0.094756 (Hartree/Particle)
 Thermal correction to Energy=                    0.107608
 Thermal correction to Enthalpy=                  0.108552
 Thermal correction to Gibbs Free Energy=         0.051717
 Sum of electronic and zero-point Energies=          -3630.752645
 Sum of electronic and thermal Energies=             -3630.739793
 Sum of electronic and thermal Enthalpies=           -3630.738849
 Sum of electronic and thermal Free Energies=        -3630.795683

                     E (Thermal)             CV                S
                      KCal/Mol        Cal/Mol-Kelvin    Cal/Mol-Kelvin
 Total                   67.525             45.357            119.618
 Electronic               0.000              0.000              0.000
 Translational            0.889              2.981             42.797
 Rotational               0.889              2.981             33.651
 Vibrational             65.747             39.396             43.171
 Vibration     1          0.593              1.986              7.217
 Vibration     2          0.594              1.981              5.214
 Vibration     3          0.596              1.975              4.576
 Vibration     4          0.607              1.939              3.219
 Vibration     5          0.610              1.930              3.051
 Vibration     6          0.620              1.897              2.604
 Vibration     7          0.632              1.858              2.261
 Vibration     8          0.643              1.822              2.023
 Vibration     9          0.677              1.719              1.561
 Vibration    10          0.693              1.672              1.413
 Vibration    11          0.707              1.633              1.305
 Vibration    12          0.736              1.551              1.114
 Vibration    13          0.770              1.459              0.945
 Vibration    14          0.804              1.372              0.812
 Vibration    15          0.813              1.350              0.781
 Vibration    16          0.823              1.325              0.748
 Vibration    17          0.884              1.185              0.589
 Vibration    18          0.888              1.177              0.581
 Vibration    19          0.928              1.093              0.501
 Vibration    20          0.943              1.062              0.475

 Optimization completed.
    -- Stationary point found.
 Normal termination of Gaussian 16 at Tue Sep 17 09:47:26 2024.

 ----------------------------------------------------------------------
 #p M062X/def2tzvp geom=check guess=read scf(xqc,tight) integral(grid=u
 ltrafine) scrf(SMD, solvent=1,4-Dioxane) polar prop=efg volume
 ----------------------------------------------------------------------

 ---
 spe
 ---
 Structure from the checkpoint file:  "smiles_00068_conf_8.chk"
 Charge =  0 Multiplicity = 1

 SCF Done:  E(RM062X) =  -3633.33946087     A.U. after   13 cycles

  Exact polarizability:     186.325       3.810     192.939      16.284       6.412      97.791
 Approx polarizability:     194.494       3.043     214.900      17.954       7.714     122.426

 Normal termination of Gaussian 16 at Tue Sep 17 10:38:04 2024.
 Gaussian 16:  ES64L-G16RevC.02  7-Dec-2021

 ----------------------------------------------------------------------
 #p M062X/def2tzvp geom=check guess=read scf(xqc,tight) integral(grid=u
 ltrafine) scrf(SMD, solvent=1,4-Dioxane) nmr=giao
 ----------------------------------------------------------------------

 ---
 spe
 ---
 Structure from the checkpoint file:  "smiles_00068_conf_8.chk"
 Charge =  0 Multiplicity = 1

                         Standard orientation:
 ---------------------------------------------------------------------
 Center     Atomic      Atomic             Coordinates (Angstroms)
 Number     Number       Type             X           Y           Z
 ---------------------------------------------------------------------
      1          7           0        1.879719    4.476577    0.463202
      2          6           0        1.517995    3.391619    0.255054
      3          6           0        1.070265    2.054832   -0.003535
      4          6           0        1.967311    0.985350    0.131997
      5          6           0        1.516432   -0.305621   -0.123607
      6         35           0        2.724657   -1.764694    0.054852
      7          6           0        0.203412   -0.552617   -0.517384
      8          6           0       -0.684404    0.522964   -0.636682
      9         16           0       -2.371893    0.243431   -1.173110
     10          6           0       -3.014646   -0.535614    0.350434
     11          9           0       -4.315864   -0.786027    0.153984
     12          9           0       -2.397711   -1.697327    0.634711
     13          9           0       -2.883391    0.255355    1.424481
     14          6           0       -0.261489    1.826936   -0.381006
     15          1           0        2.992839    1.164431    0.428972
     16          1           0       -0.127408   -1.562041   -0.723136
     17          1           0       -0.952740    2.655864   -0.468530
 ---------------------------------------------------------------------

 SCF Done:  E(RM062X) =  -3633.33946087     A.U. after    1 cycles

      1  N    Isotropic =   -86.6748   Anisotropy =   466.0584

      2  C    Isotropic =    51.5488   Anisotropy =   378.4535

      3  C    Isotropic =    48.3712   Anisotropy =   170.6359

      4  C    Isotropic =    22.1598   Anisotropy =   198.8781

      5  C    Isotropic =    22.2692   Anisotropy =   157.6593

      6  Br   Isotropic =  2020.0531   Anisotropy =  1343.7654

      7  C    Isotropic =    16.2472   Anisotropy =   185.3665

      8  C    Isotropic =    31.5236   Anisotropy =   180.0016

      9  S    Isotropic =   283.5178   Anisotropy =   357.7496

     10  C    Isotropic =    39.9602   Anisotropy =    19.5410

     11  F    Isotropic =   226.4264   Anisotropy =   149.2251

     12  F    Isotropic =   214.8957   Anisotropy =   158.8236

     13  F    Isotropic =   215.7888   Anisotropy =   157.1523

     14  C    Isotropic =    20.6292   Anisotropy =   204.1629

     15  H    Isotropic =    23.1673   Anisotropy =    11.5175

     16  H    Isotropic =    22.9524   Anisotropy =    14.3274

     17  H    Isotropic =    23.1425   Anisotropy =    10.0591

 The electronic state is 1-A.
 Alpha  occ. eigenvalues -- -485.39617 -89.94944 -63.38089 -57.20042 -57.19794
 Alpha  occ. eigenvalues --  -57.19786 -25.30463 -25.30120 -25.30112 -14.77555
 Alpha  occ. eigenvalues --  -10.83582 -10.63574 -10.62034 -10.61879 -10.60137
 Alpha  occ. eigenvalues --  -10.59820 -10.59649 -10.59539  -9.04733  -8.30800
 Alpha  occ. eigenvalues --   -6.87168  -6.86250  -6.86223  -6.22770  -6.22564
 Alpha  occ. eigenvalues --   -6.22199  -2.90545  -2.90214  -2.90184  -2.89329
 Alpha  occ. eigenvalues --   -2.89329  -1.48586  -1.39809  -1.39349  -1.04007
 Alpha  occ. eigenvalues --   -1.01783  -0.94606  -0.92923  -0.87802  -0.85054
 Alpha  occ. eigenvalues --   -0.80224  -0.76745  -0.72185  -0.71280  -0.70931
 Alpha  occ. eigenvalues --   -0.66813  -0.62791  -0.60274  -0.59610  -0.59441
 Alpha  occ. eigenvalues --   -0.58653  -0.55985  -0.55487  -0.53628  -0.51706
 Alpha  occ. eigenvalues --   -0.51440  -0.51027  -0.47637  -0.46429  -0.45388
 Alpha  occ. eigenvalues --   -0.44958  -0.43906  -0.41725  -0.39784  -0.37202
 Alpha  occ. eigenvalues --   -0.35696  -0.33689  -0.32700
 Alpha virt. eigenvalues --   -0.05340  -0.03264   0.00824   0.03165   0.05408
 Alpha virt. eigenvalues --    0.07157   0.07986   0.09403   0.10211   0.11426
 Alpha virt. eigenvalues --    0.12637   0.13694   0.14463   0.14942   0.15294

 Mulliken charges:
               1
     1  N   -0.024990
     2  C   -0.216896
     3  C    0.231640
     4  C   -0.198886
     5  C    0.060281
     6  Br  -0.065915
     7  C   -0.122444
     8  C   -0.035493
     9  S   -0.005446
    10  C    0.449934
    11  F   -0.160343
    12  F   -0.168281
    13  F   -0.162076
    14  C   -0.197406
    15  H    0.208671
    16  H    0.204497
    17  H    0.203151
 Sum of Mulliken charges =  -0.00000

 Dipole moment (field-independent basis, Debye):
    X=             -0.1699    Y=             -2.5472    Z=             -1.3697  Tot=              2.8971
 Quadrupole moment (field-independent basis, Debye-Ang):
   XX=           -101.5234   YY=           -117.8020   ZZ=            -98.7828
   XY=             -9.9350   XZ=              1.3764   YZ=             -3.0419

 Normal termination of Gaussian 16 at Tue Sep 17 10:56:16 2024.
