 Gaussian 16, Revision C.02,

 ----------------------------------------------------------------------
 #p B3LYP/gen pseudo=read EmpiricalDispersion=GD3BJ opt freq scf(xqc,ti
 ght) integral(grid=ultrafine)
 ----------------------------------------------------------------------

 ----------------------------------
 opt-freq conformers_unique/conf_aa
 ----------------------------------
 Symbolic Z-matrix:
 Charge =  0 Multiplicity = 1

 SCF Done:  E(RB3LYP) =  -358.320955149     A.U. after   15 cycles
 SCF Done:  E(RB3LYP) =  -358.321764423     A.U. after   12 cycles
 SCF Done:  E(RB3LYP) =  -358.321797315     A.U. after   10 cycles
 SCF Done:  E(RB3LYP) =  -358.321799093     A.U. after    8 cycles
 Optimization completed.
    -- Stationary point found.
 Normal termination of Gaussian 16 at Tue Sep 17 09:47:02 2024.

 ------------------------------------------------------------------
 #P Geom=AllCheck Guess=TCheck SCRF=Check GenChk RB3LYP/ChkBas Freq
 ------------------------------------------------------------------

 Structure from the checkpoint file:  "smiles_00121_conf_0.chk"
 ----------------------------------
 opt-freq conformers_unique/conf_aa
 ----------------------------------
 Charge =  0 Multiplicity = 1

 SCF Done:  E(RB3LYP) =  -358.321799093     A.U. after    1 cycles

                      1                      2                      3
                      A                      A                      A
 Frequencies --    124.7873               168.5834               254.1981
 Red. masses --      5.8153                13.0834                 9.8966
 Frc consts  --      0.0534                 0.2191                 0.3768
 IR Inten    --      0.0305                 0.3803                 1.1690

                      4                      5                      6
                      A                      A                      A
 Frequencies --    257.6544               452.6715               489.9662
 Red. masses --      6.2139                 4.6452                 8.8605
 Frc consts  --      0.2430                 0.5608                 1.2533
 IR Inten    --      1.2537                 0.0015                 0.0079

                      7                      8                      9
                      A                      A                      A
 Frequencies --    557.9684               569.9001               658.8209
 Red. masses --      3.3781                10.6626                 8.1401
 Frc consts  --      0.6196                 2.0404                 2.0817
 IR Inten    --      0.1066                12.4272                10.1573

                     10                     11                     12
                      A                      A                      A
 Frequencies --    756.6412               810.3811               870.5891
 Red. masses --      9.4790                 1.2326                 6.7832
 Frc consts  --      3.1974                 0.4769                 3.0291
 IR Inten    --     18.2417                29.7314                14.7284

                     13                     14                     15
                      A                      A                      A
 Frequencies --    960.5430               987.3321              1024.9990
 Red. masses --      1.3441                 1.3420                 9.2210
 Frc consts  --      0.7307                 0.7708                 5.7079
 IR Inten    --      0.0051                 1.0427                84.1269

                     16                     17                     18
                      A                      A                      A
 Frequencies --   1098.2613              1150.0152              1265.9698
 Red. masses --      2.1395                 1.3733                 1.7697
 Frc consts  --      1.5205                 1.0701                 1.6711
 IR Inten    --      9.7365                 8.7564                13.1465

                     19                     20                     21
                      A                      A                      A
 Frequencies --   1326.1349              1334.7499              1475.2502
 Red. masses --      7.2839                 2.4478                 2.5050
 Frc consts  --      7.5473                 2.5693                 3.2121
 IR Inten    --      5.8687                21.7510                70.9034

                     22                     23                     24
                      A                      A                      A
 Frequencies --   1492.7165              1622.1542              1628.5858
 Red. masses --      2.9314                 7.5200                 6.1697
 Frc consts  --      3.8483                11.6587                 9.6413
 IR Inten    --    132.7937                 3.5131                69.4701

                     25                     26                     27
                      A                      A                      A
 Frequencies --   3188.4669              3215.1878              3228.3571
 Red. masses --      1.0898                 1.0904                 1.0973
 Frc consts  --      6.5275                 6.6414                 6.7381
 IR Inten    --     12.9718                 3.5465                 7.3690

 - Thermochemistry -
 -------------------
 Temperature   298.150 Kelvin.  Pressure   1.00000 Atm.
 Atom     1 has atomic number  9 and mass  18.99840

 Molecular mass:   222.92535 amu.
 Principal axes and moments of inertia in atomic units:
                           1         2         3
     Eigenvalues --   620.828882502.584303123.41318
           X            0.99954   0.03033   0.00003
           Y           -0.03033   0.99954  -0.00000
           Z           -0.00003   0.00000   1.00000
 This molecule is an asymmetric top.
 Rotational symmetry number  1.
 Warning -- assumption of classical behavior for rotation
           may cause significant error
 Rotational temperatures (Kelvin)      0.13951     0.03461     0.02773
 Rotational constants (GHZ):           2.90699     0.72115     0.57781
 Zero-point vibrational energy     185247.0 (Joules/Mol)
                                   44.27510 (Kcal/Mol)
 Warning -- explicit consideration of   8 degrees of freedom as
           vibrations may cause significant error
 Vibrational temperatures:    179.54   242.55   365.73   370.71   651.29
          (Kelvin)            704.95   802.79   819.96   947.90  1088.64
                             1165.96  1252.58  1382.01  1420.55  1474.74
                             1580.15  1654.62  1821.45  1908.01  1920.41
                             2122.56  2147.69  2333.92  2343.17  4587.49
                             4625.94  4644.89

 Zero-point correction=                           0.070557 (Hartree/Particle)
 Thermal correction to Energy=                    0.077068
 Thermal correction to Enthalpy=                  0.078013
 Thermal correction to Gibbs Free Energy=         0.037667
 Sum of electronic and zero-point Energies=           -358.251242
 Sum of electronic and thermal Energies=              -358.244731
 Sum of electronic and thermal Enthalpies=            -358.243787
 Sum of electronic and thermal Free Energies=         -358.284132

                     E (Thermal)             CV                S
                      KCal/Mol        Cal/Mol-Kelvin    Cal/Mol-Kelvin
 Total                   48.361             23.306             84.915
 Electronic               0.000              0.000              0.000
 Translational            0.889              2.981             42.108
 Rotational               0.889              2.981             29.963
 Vibrational             46.584             17.345             12.844
 Vibration     1          0.610              1.928              3.025
 Vibration     2          0.625              1.881              2.451
 Vibration     3          0.665              1.756              1.701
 Vibration     4          0.667              1.750              1.678
 Vibration     5          0.811              1.355              0.788
 Vibration     6          0.846              1.272              0.684
 Vibration     7          0.914              1.122              0.528
 Vibration     8          0.926              1.096              0.504

 Optimization completed.
    -- Stationary point found.
 Normal termination of Gaussian 16 at Tue Sep 17 09:47:23 2024.

 ----------------------------------------------------------------------
 #p M062X/def2tzvp geom=check guess=read scf(xqc,tight) integral(grid=u
 ltrafine) scrf(SMD, solvent=1,4-Dioxane) polar prop=efg volume
 ----------------------------------------------------------------------

 ---
 spe
 ---
 Structure from the checkpoint file:  "smiles_00121_conf_0.chk"
 Charge =  0 Multiplicity = 1

 SCF Done:  E(RM062X) =  -644.557412727     A.U. after   21 cycles

  Exact polarizability:     157.899       6.133     102.587      -0.003       0.000      60.697
 Approx polarizability:     165.623       4.815     126.164      -0.003       0.001      77.372

 Normal termination of Gaussian 16 at Tue Sep 17 09:54:27 2024.
 Gaussian 16:  ES64L-G16RevC.02  7-Dec-2021

 ----------------------------------------------------------------------
 #p M062X/def2tzvp geom=check guess=read scf(xqc,tight) integral(grid=u
 ltrafine) scrf(SMD, solvent=1,4-Dioxane) nmr=giao
 ----------------------------------------------------------------------

 ---
 spe
 ---
 Structure from the checkpoint file:  "smiles_00121_conf_0.chk"
 Charge =  0 Multiplicity = 1

                         Standard orientation:
 ---------------------------------------------------------------------
 Center     Atomic      Atomic             Coordinates (Angstroms)
 Number     Number       Type             X           Y           Z
 ---------------------------------------------------------------------
      1          9           0       -0.701364    2.131431    0.000005
      2          6           0       -1.295158    0.936454    0.000102
      3          7           0       -2.610247    0.939790    0.000104
      4          6           0       -3.241008   -0.242623    0.000091
      5          6           0       -2.568341   -1.460774    0.000069
      6          6           0       -1.171382   -1.446358    0.000033
      7          6           0       -0.511266   -0.221962    0.000038
      8         53           0        1.610442   -0.116582   -0.000055
      9          1           0       -4.327220   -0.202951    0.000113
     10          1           0       -3.114520   -2.397425    0.000063
     11          1           0       -0.604729   -2.370600   -0.000005
 ---------------------------------------------------------------------

 SCF Done:  E(RM062X) =  -644.557412727     A.U. after    1 cycles

      1  F    Isotropic =   227.3479   Anisotropy =   100.1710

      2  C    Isotropic =     0.9175   Anisotropy =   111.8192

      3  N    Isotropic =   -90.1341   Anisotropy =   506.1575

      4  C    Isotropic =    13.3697   Anisotropy =   198.2197

      5  C    Isotropic =    41.8329   Anisotropy =   197.5013

      6  C    Isotropic =    10.8512   Anisotropy =   210.9401

      7  C    Isotropic =    49.0473   Anisotropy =   121.3257

      8  I    Isotropic =   436.4493   Anisotropy =    67.1147

      9  H    Isotropic =    22.8114   Anisotropy =     5.7365

     10  H    Isotropic =    23.9054   Anisotropy =     5.9367

     11  H    Isotropic =    23.0245   Anisotropy =    12.5512

 The electronic state is 1-A.
 Alpha  occ. eigenvalues --  -25.27378 -14.77405 -10.68035 -10.61411 -10.59870
 Alpha  occ. eigenvalues --  -10.58513 -10.56618  -7.11718  -5.11126  -5.09995
 Alpha  occ. eigenvalues --   -5.09971  -2.07949  -2.07490  -2.07475  -2.06530
 Alpha  occ. eigenvalues --   -2.06530  -1.39521  -1.08241  -0.93510  -0.88365
 Alpha  occ. eigenvalues --   -0.79962  -0.74571  -0.72909  -0.65387  -0.60966
 Alpha  occ. eigenvalues --   -0.59438  -0.57235  -0.52198  -0.50356  -0.48402
 Alpha  occ. eigenvalues --   -0.48399  -0.43736  -0.38825  -0.36016  -0.34740
 Alpha  occ. eigenvalues --   -0.33083  -0.30579
 Alpha virt. eigenvalues --   -0.01877  -0.01398   0.00390   0.08889   0.11234
 Alpha virt. eigenvalues --    0.11485   0.13285   0.15664   0.15730   0.17315
 Alpha virt. eigenvalues --    0.17344   0.19660   0.20507   0.21042   0.22835

 Mulliken charges:
               1
     1  F   -0.180886
     2  C    0.311570
     3  N   -0.225108
     4  C   -0.033953
     5  C   -0.171114
     6  C   -0.129927
     7  C   -0.077099
     8  I   -0.030676
     9  H    0.172535
    10  H    0.171329
    11  H    0.193328
 Sum of Mulliken charges =  -0.00000

 Dipole moment (field-independent basis, Debye):
    X=             -0.8965    Y=             -3.8080    Z=              0.0000  Tot=              3.9121
 Quadrupole moment (field-independent basis, Debye-Ang):
   XX=            -58.4883   YY=            -66.0179   ZZ=            -67.7337
   XY=              8.0332   XZ=             -0.0002   YZ=             -0.0001

 Normal termination of Gaussian 16 at Tue Sep 17 09:57:18 2024.
