 Gaussian 16, Revision C.02,

 ----------------------------------------------------------------------
 #p B3LYP/6-31G(d,p) EmpiricalDispersion=GD3BJ opt freq scf(xqc,tight)
 integral(grid=ultrafine)
 ----------------------------------------------------------------------

 ----------------------------------
 opt-freq conformers_unique/conf_af
 ----------------------------------
 Symbolic Z-matrix:
 Charge =  0 Multiplicity = 1

 SCF Done:  E(RB3LYP) =  -3157.29336467     A.U. after   14 cycles
 SCF Done:  E(RB3LYP) =  -3157.29575850     A.U. after   11 cycles
 SCF Done:  E(RB3LYP) =  -3157.29613432     A.U. after   11 cycles
 SCF Done:  E(RB3LYP) =  -3157.29639416     A.U. after   10 cycles
 SCF Done:  E(RB3LYP) =  -3157.29626486     A.U. after   10 cycles
 SCF Done:  E(RB3LYP) =  -3157.29643744     A.U. after   10 cycles
 SCF Done:  E(RB3LYP) =  -3157.29645196     A.U. after    9 cycles
 SCF Done:  E(RB3LYP) =  -3157.29645343     A.U. after    7 cycles
 SCF Done:  E(RB3LYP) =  -3157.29645459     A.U. after    7 cycles
 Optimization completed.
    -- Stationary point found.
 Normal termination of Gaussian 16 at Tue Sep 17 09:53:36 2024.

 ----------------------------------------------------------------------
 #P Geom=AllCheck Guess=TCheck SCRF=Check GenChk RB3LYP/6-31G(d,p) Freq
 ----------------------------------------------------------------------

 Structure from the checkpoint file:  "smiles_00105_conf_5.chk"
 ----------------------------------
 opt-freq conformers_unique/conf_af
 ----------------------------------
 Charge =  0 Multiplicity = 1

 SCF Done:  E(RB3LYP) =  -3157.29645459     A.U. after    1 cycles

 The electronic state is 1-A.
 Alpha  occ. eigenvalues -- -482.90916 -61.86954 -56.38856 -56.38500 -56.38477
 Alpha  occ. eigenvalues --  -10.23873 -10.20269 -10.20230 -10.19659 -10.19426
 Alpha  occ. eigenvalues --  -10.19422 -10.19258 -10.18612 -10.18602 -10.17750
 Alpha  occ. eigenvalues --  -10.17749 -10.16762 -10.16761 -10.16759 -10.16758
 Alpha  occ. eigenvalues --   -8.57777  -6.53057  -6.51844  -6.51799  -2.64626
 Alpha  occ. eigenvalues --   -2.64286  -2.64252  -2.63285  -2.63284  -0.87482
 Alpha  occ. eigenvalues --   -0.81994  -0.81050  -0.77667  -0.77261  -0.72728
 Alpha  occ. eigenvalues --   -0.70694  -0.68507  -0.67846  -0.67820  -0.62253
 Alpha  occ. eigenvalues --   -0.61651  -0.59372  -0.55945  -0.53248  -0.48959
 Alpha  occ. eigenvalues --   -0.47860  -0.46099  -0.44152  -0.43615  -0.43565
 Alpha  occ. eigenvalues --   -0.42641  -0.41964  -0.41554  -0.40780  -0.40380
 Alpha  occ. eigenvalues --   -0.38940  -0.38639  -0.37940  -0.37796  -0.37285
 Alpha  occ. eigenvalues --   -0.35855  -0.35824  -0.34391  -0.33899  -0.33882
 Alpha  occ. eigenvalues --   -0.33183  -0.32943  -0.32780  -0.31578  -0.31121
 Alpha  occ. eigenvalues --   -0.29540  -0.26630  -0.24195  -0.22883
 Alpha virt. eigenvalues --   -0.00757  -0.00272   0.01241   0.08751   0.09619
 Alpha virt. eigenvalues --    0.10148   0.11914   0.12357   0.13548   0.14869
 Alpha virt. eigenvalues --    0.15046   0.15247   0.15350   0.15463   0.15831

 Mulliken charges:
               1
     1  C   -0.303596
     2  C   -0.131869
     3  C   -0.303602
     4  C    0.177257
     5  C   -0.189005
     6  C    0.147588
     7  C   -0.125037
     8  C   -0.311715
     9  C   -0.311713
    10  C   -0.056660
    11  Br  -0.125690
    12  C    0.152925
    13  C   -0.125568
    14  C   -0.311699
    15  C   -0.311696
    16  C   -0.206689
    17  H    0.100811
    18  H    0.103094
    19  H    0.108353
    20  H    0.089056
    21  H    0.108354
    22  H    0.103092
    23  H    0.100811
    24  H    0.079752
    25  H    0.090340
    26  H    0.096780
    27  H    0.122567
    28  H    0.101582
    29  H    0.096776
    30  H    0.122569
    31  H    0.101583
    32  H    0.091091
    33  H    0.096789
    34  H    0.122520
    35  H    0.101592
    36  H    0.101592
    37  H    0.122521
    38  H    0.096787
    39  H    0.078356
 Sum of Mulliken charges =  -0.00000

 Dipole moment (field-independent basis, Debye):
    X=              1.6958    Y=             -0.2474    Z=              0.0002  Tot=              1.7137
 Quadrupole moment (field-independent basis, Debye-Ang):
   XX=           -108.8536   YY=           -107.1869   ZZ=           -114.7890
   XY=              0.0352   XZ=             -0.0001   YZ=             -0.0001

  Exact polarizability:     214.755       0.642     192.495       0.001      -0.000     126.954
 Approx polarizability:     315.069      -3.121     287.313       0.004      -0.002     183.455

                      1                      2                      3
                      A                      A                      A
 Frequencies --     29.5633                43.2833                66.5466
 Red. masses --      2.8235                 4.2917                 2.9493
 Frc consts  --      0.0015                 0.0047                 0.0077
 IR Inten    --      0.0018                 0.1046                 0.1769

                      4                      5                      6
                      A                      A                      A
 Frequencies --     89.5068               125.3957               141.2112
 Red. masses --      2.5862                 2.4096                 3.1286
 Frc consts  --      0.0122                 0.0223                 0.0368
 IR Inten    --      0.0008                 0.0624                 0.0294

                      7                      8                      9
                      A                      A                      A
 Frequencies --    163.8198               175.7644               187.5908
 Red. masses --      1.8386                 2.4913                 1.5308
 Frc consts  --      0.0291                 0.0453                 0.0317
 IR Inten    --      0.0081                 0.2613                 0.0639

                     10                     11                     12
                      A                      A                      A
 Frequencies --    196.2838               207.9123               213.5566
 Red. masses --      7.8690                 1.8361                 1.1081
 Frc consts  --      0.1786                 0.0468                 0.0298
 IR Inten    --      0.0312                 0.7393                 0.4699

                     13                     14                     15
                      A                      A                      A
 Frequencies --    229.0788               229.6186               233.6223
 Red. masses --      1.3615                 2.4881                 1.4137
 Frc consts  --      0.0421                 0.0773                 0.0455
 IR Inten    --      0.0012                 0.4471                 0.0006

                     16                     17                     18
                      A                      A                      A
 Frequencies --    241.2451               252.9089               262.3583
 Red. masses --      1.3706                 1.6698                 1.2919
 Frc consts  --      0.0470                 0.0629                 0.0524
 IR Inten    --      0.0085                 0.0312                 0.0357

                     19                     20                     21
                      A                      A                      A
 Frequencies --    302.1557               312.1797               362.7715
 Red. masses --      2.3770                 3.1252                 2.8305
 Frc consts  --      0.1279                 0.1794                 0.2195
 IR Inten    --      0.0697                 0.0079                 1.1339

                     22                     23                     24
                      A                      A                      A
 Frequencies --    366.9943               368.3192               404.3055
 Red. masses --      3.6916                 2.6593                 5.0623
 Frc consts  --      0.2929                 0.2125                 0.4875
 IR Inten    --      1.9173                 0.3708                 1.5188

                     25                     26                     27
                      A                      A                      A
 Frequencies --    447.2000               485.4207               533.4454
 Red. masses --      2.5111                 3.0407                 4.0782
 Frc consts  --      0.2959                 0.4221                 0.6838
 IR Inten    --      1.3280                 2.3601                 2.5260

                     28                     29                     30
                      A                      A                      A
 Frequencies --    556.3627               616.0644               646.3003
 Red. masses --      2.7330                 3.1217                 4.3213
 Frc consts  --      0.4984                 0.6981                 1.0635
 IR Inten    --      0.2244                 2.4016                 0.0119

                     31                     32                     33
                      A                      A                      A
 Frequencies --    652.1501               664.7719               773.5252
 Red. masses --      3.0364                 3.8933                 3.4705
 Frc consts  --      0.7608                 1.0137                 1.2235
 IR Inten    --      1.8032                 1.3626                 3.1472

                     34                     35                     36
                      A                      A                      A
 Frequencies --    829.2509               835.5941               893.3123
 Red. masses --      3.3603                 3.4626                 2.5358
 Frc consts  --      1.3614                 1.4244                 1.1923
 IR Inten    --      4.0067                 3.2968                 0.3624

                     37                     38                     39
                      A                      A                      A
 Frequencies --    907.4829               912.4582               937.5881
 Red. masses --      1.5924                 1.3975                 1.1750
 Frc consts  --      0.7727                 0.6855                 0.6086
 IR Inten    --      8.3818                 1.2093                 0.7806

                     40                     41                     42
                      A                      A                      A
 Frequencies --    946.7625               947.1842               947.4701
 Red. masses --      1.1956                 2.4188                 1.1961
 Frc consts  --      0.6314                 1.2785                 0.6326
 IR Inten    --      1.2146                 8.6257                 3.5483

                     43                     44                     45
                      A                      A                      A
 Frequencies --    970.1690               972.0489               975.2639
 Red. masses --      1.4972                 2.4519                 1.4440
 Frc consts  --      0.8303                 1.3650                 0.8092
 IR Inten    --      0.0944                 2.4562                 0.1201

                     46                     47                     48
                      A                      A                      A
 Frequencies --    975.5357              1032.8919              1099.9029
 Red. masses --      1.4408                 7.8246                 1.5399
 Frc consts  --      0.8079                 4.9184                 1.0976
 IR Inten    --      0.0001                44.0166                 1.6928

                     49                     50                     51
                      A                      A                      A
 Frequencies --   1103.6052              1130.0495              1139.8887
 Red. masses --      1.5648                 2.3180                 2.4960
 Frc consts  --      1.1229                 1.7441                 1.9108
 IR Inten    --     23.1769                 0.7850                 0.9043

                     52                     53                     54
                      A                      A                      A
 Frequencies --   1141.6083              1142.0817              1181.2068
 Red. masses --      2.4958                 1.7066                 1.9095
 Frc consts  --      1.9164                 1.3115                 1.5697
 IR Inten    --      0.0059                27.9484                 0.9289

                     55                     56                     57
                      A                      A                      A
 Frequencies --   1203.8321              1205.2897              1224.6683
 Red. masses --      1.8526                 1.9081                 1.4868
 Frc consts  --      1.5819                 1.6332                 1.3138
 IR Inten    --      5.3699                 5.6384                 3.0610

                     58                     59                     60
                      A                      A                      A
 Frequencies --   1261.1129              1301.9106              1320.0719
 Red. masses --      1.6287                 2.4855                 4.4123
 Frc consts  --      1.5262                 2.4822                 4.5301
 IR Inten    --      2.8263                 4.7657                 6.3746

                     61                     62                     63
                      A                      A                      A
 Frequencies --   1352.7074              1358.0192              1362.5919
 Red. masses --      1.3275                 1.7549                 1.2822
 Frc consts  --      1.4312                 1.9068                 1.4026
 IR Inten    --      2.4346                 5.5620                 0.3806

                     64                     65                     66
                      A                      A                      A
 Frequencies --   1363.1262              1369.4586              1411.9503
 Red. masses --      1.2815                 2.2259                 1.3869
 Frc consts  --      1.4030                 2.4596                 1.6290
 IR Inten    --      2.3796                 1.8098                 2.4649

                     67                     68                     69
                      A                      A                      A
 Frequencies --   1412.7591              1413.3844              1413.6484
 Red. masses --      1.2321                 1.2220                 1.2196
 Frc consts  --      1.4489                 1.4383                 1.4360
 IR Inten    --      0.1857                15.8674                 1.8731

                     70                     71                     72
                      A                      A                      A
 Frequencies --   1431.8866              1433.3016              1436.0010
 Red. masses --      1.2508                 1.2205                 1.2192
 Frc consts  --      1.5110                 1.4773                 1.4813
 IR Inten    --      9.2925                 0.6437                 1.8672

                     73                     74                     75
                      A                      A                      A
 Frequencies --   1464.2059              1488.1210              1501.3834
 Red. masses --      2.4964                 2.1035                 1.0434
 Frc consts  --      3.1534                 2.7445                 1.3858
 IR Inten    --      6.3233                34.0195                 0.0711

                     76                     77                     78
                      A                      A                      A
 Frequencies --   1503.5640              1503.7419              1505.3151
 Red. masses --      1.0419                 1.0417                 1.0479
 Frc consts  --      1.3878                 1.3879                 1.3990
 IR Inten    --      0.0104                 0.0037                 1.9195

                     79                     80                     81
                      A                      A                      A
 Frequencies --   1515.4219              1517.1167              1517.6226
 Red. masses --      1.0415                 1.0475                 1.0497
 Frc consts  --      1.4092                 1.4205                 1.4244
 IR Inten    --      0.0252                 8.2628                 0.2630

                     82                     83                     84
                      A                      A                      A
 Frequencies --   1518.0887              1518.3603              1524.1854
 Red. masses --      1.0573                 1.0500                 1.0766
 Frc consts  --      1.4356                 1.4263                 1.4736
 IR Inten    --      9.8027                 0.0032                 5.8311

                     85                     86                     87
                      A                      A                      A
 Frequencies --   1535.9642              1536.5460              1625.6093
 Red. masses --      1.0676                 1.0662                 7.3326
 Frc consts  --      1.4839                 1.4831                11.4167
 IR Inten    --      2.9839                 0.5520                 4.7728

                     88                     89                     90
                      A                      A                      A
 Frequencies --   1644.7942              3034.4476              3035.3877
 Red. masses --      5.2421                 1.0843                 1.0826
 Frc consts  --      8.3556                 5.8823                 5.8768
 IR Inten    --      4.1279                13.1509                15.3340

                     91                     92                     93
                      A                      A                      A
 Frequencies --   3036.2044              3040.7870              3044.6988
 Red. masses --      1.0823                 1.0347                 1.0355
 Frc consts  --      5.8785                 5.6369                 5.6560
 IR Inten    --     21.6703                23.4477                31.6002

                     94                     95                     96
                      A                      A                      A
 Frequencies --   3049.1627              3049.3368              3053.4073
 Red. masses --      1.0386                 1.0387                 1.0408
 Frc consts  --      5.6895                 5.6906                 5.7173
 IR Inten    --      7.3481                61.2962                86.8916

                     97                     98                     99
                      A                      A                      A
 Frequencies --   3053.9358              3109.6718              3113.2507
 Red. masses --      1.0409                 1.1026                 1.1026
 Frc consts  --      5.7197                 6.2821                 6.2964
 IR Inten    --      6.3757                 0.1920                 0.2204

                    100                    101                    102
                      A                      A                      A
 Frequencies --   3113.5111              3115.6170              3115.7521
 Red. masses --      1.1025                 1.1019                 1.1022
 Frc consts  --      6.2971                 6.3020                 6.3045
 IR Inten    --     32.7779               121.2990                44.5458

                    103                    104                    105
                      A                      A                      A
 Frequencies --   3116.0556              3121.7690              3123.4246
 Red. masses --      1.1021                 1.1029                 1.1025
 Frc consts  --      6.3051                 6.3328                 6.3373
 IR Inten    --     11.6675                21.5990                30.7500

                    106                    107                    108
                      A                      A                      A
 Frequencies --   3159.3549              3160.3499              3161.6460
 Red. masses --      1.0980                 1.0978                 1.0975
 Frc consts  --      6.4574                 6.4602                 6.4636
 IR Inten    --      0.0819                 0.0313                17.0365

                    109                    110                    111
                      A                      A                      A
 Frequencies --   3162.7814              3170.2741              3177.4631
 Red. masses --      1.0973                 1.0895                 1.0890
 Frc consts  --      6.4674                 6.4519                 6.4781
 IR Inten    --     21.5233                19.7021                16.0653

 - Thermochemistry -
 -------------------
 Temperature   298.150 Kelvin.  Pressure   1.00000 Atm.
 Atom     1 has atomic number  6 and mass  12.00000

 Molecular mass:   282.09831 amu.
 Principal axes and moments of inertia in atomic units:
                           1         2         3
     Eigenvalues --  3433.182395964.816738202.64750
           X            0.99972   0.02376  -0.00001
           Y           -0.02376   0.99972   0.00000
           Z            0.00001  -0.00000   1.00000
 This molecule is an asymmetric top.
 Rotational symmetry number  1.
 Warning -- assumption of classical behavior for rotation
           may cause significant error
 Rotational temperatures (Kelvin)      0.02523     0.01452     0.01056
 Rotational constants (GHZ):           0.52568     0.30256     0.22002
 Zero-point vibrational energy     906868.9 (Joules/Mol)
                                  216.74687 (Kcal/Mol)
 Warning -- explicit consideration of  29 degrees of freedom as
           vibrations may cause significant error
 Vibrational temperatures:     42.53    62.27    95.75   128.78   180.42
          (Kelvin)            203.17   235.70   252.89   269.90   282.41
                              299.14   307.26   329.59   330.37   336.13
                              347.10   363.88   377.48   434.73   449.16
                              521.95   528.02   529.93   581.71   643.42
                              698.41   767.51   800.48   886.38   929.88
                              938.30   956.46  1112.93  1193.11  1202.23
                             1285.28  1305.67  1312.82  1348.98  1362.18
                             1362.79  1363.20  1395.86  1398.56  1403.19
                             1403.58  1486.10  1582.51  1587.84  1625.89
                             1640.05  1642.52  1643.20  1699.49  1732.05
                             1734.14  1762.02  1814.46  1873.16  1899.29
                             1946.24  1953.89  1960.47  1961.23  1970.35
                             2031.48  2032.65  2033.54  2033.92  2060.17
                             2062.20  2066.09  2106.67  2141.07  2160.16
                             2163.29  2163.55  2165.81  2180.35  2182.79
                             2183.52  2184.19  2184.58  2192.96  2209.91
                             2210.75  2338.89  2366.49  4365.89  4367.25
                             4368.42  4375.01  4380.64  4387.06  4387.32
                             4393.17  4393.93  4474.12  4479.27  4479.65
                             4482.68  4482.87  4483.31  4491.53  4493.91
                             4545.61  4547.04  4548.90  4550.54  4561.32
                             4571.66

 Zero-point correction=                           0.345408 (Hartree/Particle)
 Thermal correction to Energy=                    0.364074
 Thermal correction to Enthalpy=                  0.365019
 Thermal correction to Gibbs Free Energy=         0.298884
 Sum of electronic and zero-point Energies=          -3156.951046
 Sum of electronic and thermal Energies=             -3156.932380
 Sum of electronic and thermal Enthalpies=           -3156.931436
 Sum of electronic and thermal Free Energies=        -3156.997571

                     E (Thermal)             CV                S
                      KCal/Mol        Cal/Mol-Kelvin    Cal/Mol-Kelvin
 Total                  228.460             69.905            139.193
 Electronic               0.000              0.000              0.000
 Translational            0.889              2.981             42.809
 Rotational               0.889              2.981             33.485
 Vibrational            226.683             63.943             62.899
 Vibration     1          0.593              1.984              5.859
 Vibration     2          0.595              1.980              5.103
 Vibration     3          0.598              1.970              4.253
 Vibration     4          0.602              1.957              3.671
 Vibration     5          0.610              1.928              3.015
 Vibration     6          0.615              1.912              2.787
 Vibration     7          0.623              1.887              2.505
 Vibration     8          0.628              1.872              2.373
 Vibration     9          0.632              1.857              2.252
 Vibration    10          0.636              1.845              2.168
 Vibration    11          0.641              1.829              2.062
 Vibration    12          0.644              1.820              2.013
 Vibration    13          0.652              1.797              1.886
 Vibration    14          0.652              1.796              1.882
 Vibration    15          0.654              1.789              1.851
 Vibration    16          0.658              1.777              1.794
 Vibration    17          0.664              1.758              1.710
 Vibration    18          0.670              1.742              1.646
 Vibration    19          0.694              1.670              1.405
 Vibration    20          0.701              1.650              1.351
 Vibration    21          0.737              1.549              1.110
 Vibration    22          0.740              1.540              1.092
 Vibration    23          0.741              1.537              1.087
 Vibration    24          0.769              1.461              0.947
 Vibration    25          0.806              1.367              0.804
 Vibration    26          0.841              1.282              0.696
 Vibration    27          0.888              1.176              0.580
 Vibration    28          0.912              1.126              0.531
 Vibration    29          0.976              0.998              0.423

 Optimization completed.
    -- Stationary point found.
 Normal termination of Gaussian 16 at Tue Sep 17 10:01:02 2024.
 Gaussian 16:  ES64L-G16RevC.02  7-Dec-2021

 ----------------------------------------------------------------------
 #p M062X/def2tzvp geom=check guess=read scf(xqc,tight) integral(grid=u
 ltrafine) scrf(SMD, solvent=1,4-Dioxane) polar prop=efg volume
 ----------------------------------------------------------------------

 ---
 spe
 ---
 Structure from the checkpoint file:  "smiles_00105_conf_5.chk"
 Charge =  0 Multiplicity = 1

                         Standard orientation:
 ---------------------------------------------------------------------
 Center     Atomic      Atomic             Coordinates (Angstroms)
 Number     Number       Type             X           Y           Z
 ---------------------------------------------------------------------
      1          6           0        4.385753   -0.079876   -1.268034
      2          6           0        3.728098   -0.648582   -0.000022
      3          6           0        4.385981   -0.079506    1.267701
      4          6           0        2.227688   -0.416874    0.000043
      5          6           0        1.691530    0.870615    0.000060
      6          6           0        0.314649    1.120337    0.000055
      7          6           0       -0.119742    2.584454    0.000143
      8          6           0       -0.861036    2.995829    1.285048
      9          6           0       -0.861001    2.996015   -1.284718
     10          6           0       -0.537793    0.000206    0.000010
     11         35           0       -2.449955    0.289895   -0.000239
     12          6           0       -0.055303   -1.319352    0.000082
     13          6           0       -0.900443   -2.591190    0.000198
     14          6           0       -1.730205   -2.765826    1.285058
     15          6           0       -1.730169   -2.766119   -1.284638
     16          6           0        1.336595   -1.485815    0.000085
     17          1           0        5.457672   -0.302847   -1.281512
     18          1           0        4.270832    1.008116   -1.316542
     19          1           0        3.934498   -0.503449   -2.169980
     20          1           0        3.887178   -1.734458    0.000126
     21          1           0        3.934865   -0.502785    2.169855
     22          1           0        4.271122    1.008506    1.315900
     23          1           0        5.457893   -0.302514    1.281064
     24          1           0        2.360517    1.726473    0.000082
     25          1           0        0.817663    3.153379    0.000204
     26          1           0       -1.060934    4.072314    1.271026
     27          1           0       -1.811131    2.472749    1.395028
     28          1           0       -0.249599    2.774826    2.165374
     29          1           0       -1.060608    4.072553   -1.270687
     30          1           0       -1.811246    2.473190   -1.394622
     31          1           0       -0.249689    2.774842   -2.165089
     32          1           0       -0.171852   -3.410627    0.000307
     33          1           0       -2.238719   -3.735456    1.270913
     34          1           0       -2.483719   -1.985685    1.394905
     35          1           0       -1.080953   -2.735030    2.165499
     36          1           0       -1.080955   -2.735148   -2.165102
     37          1           0       -2.483927   -1.986215   -1.394485
     38          1           0       -2.238380   -3.735906   -1.270446
     39          1           0        1.730295   -2.499054    0.000129
 ---------------------------------------------------------------------

 SCF Done:  E(RM062X) =  -3159.59348412     A.U. after   12 cycles
