 Gaussian 16, Revision C.02,

 ----------------------------------------------------------------------
 #p B3LYP/6-31G(d,p) EmpiricalDispersion=GD3BJ opt freq scf(xqc,tight)
 integral(grid=ultrafine)
 ----------------------------------------------------------------------

 ----------------------------------
 opt-freq conformers_unique/conf_af
 ----------------------------------
 Symbolic Z-matrix:
 Charge =  0 Multiplicity = 1

 SCF Done:  E(RB3LYP) =  -3233.09051299     A.U. after   14 cycles
 SCF Done:  E(RB3LYP) =  -3233.09198040     A.U. after   12 cycles
 SCF Done:  E(RB3LYP) =  -3233.09234942     A.U. after   11 cycles
 SCF Done:  E(RB3LYP) =  -3233.09258168     A.U. after   11 cycles
 SCF Done:  E(RB3LYP) =  -3233.09262943     A.U. after   10 cycles
 SCF Done:  E(RB3LYP) =  -3233.09265372     A.U. after   10 cycles
 SCF Done:  E(RB3LYP) =  -3233.09266732     A.U. after   10 cycles
 SCF Done:  E(RB3LYP) =  -3233.09265282     A.U. after    8 cycles
 SCF Done:  E(RB3LYP) =  -3233.09271222     A.U. after   11 cycles
 SCF Done:  E(RB3LYP) =  -3233.09278650     A.U. after   14 cycles
 SCF Done:  E(RB3LYP) =  -3233.09267994     A.U. after   14 cycles
 SCF Done:  E(RB3LYP) =  -3233.09680843     A.U. after   12 cycles
 SCF Done:  E(RB3LYP) =  -3233.09728352     A.U. after   11 cycles
 SCF Done:  E(RB3LYP) =  -3233.09752266     A.U. after   12 cycles
 SCF Done:  E(RB3LYP) =  -3233.09756103     A.U. after   10 cycles
 SCF Done:  E(RB3LYP) =  -3233.09756836     A.U. after    9 cycles
 SCF Done:  E(RB3LYP) =  -3233.09756941     A.U. after    8 cycles
 Optimization completed.
    -- Stationary point found.
 Normal termination of Gaussian 16 at Tue Sep 17 09:52:05 2024.

 ----------------------------------------------------------------------
 #P Geom=AllCheck Guess=TCheck SCRF=Check GenChk RB3LYP/6-31G(d,p) Freq
 ----------------------------------------------------------------------

 Structure from the checkpoint file:  "smiles_00060_conf_5.chk"
 ----------------------------------
 opt-freq conformers_unique/conf_af
 ----------------------------------
 Charge =  0 Multiplicity = 1

 SCF Done:  E(RB3LYP) =  -3233.09756941     A.U. after    1 cycles

                      1                      2                      3
                      A                      A                      A
 Frequencies --     35.7558                61.9554                87.1850
 Red. masses --      5.3830                 3.5007                 3.3372
 Frc consts  --      0.0041                 0.0079                 0.0149
 IR Inten    --      0.0532                 0.0347                 0.1905

                      4                      5                      6
                      A                      A                      A
 Frequencies --    115.6706               143.8233               177.5033
 Red. masses --     12.3839                 2.8389                 8.7951
 Frc consts  --      0.0976                 0.0346                 0.1633
 IR Inten    --      0.1131                 0.0739                 0.3384

                      7                      8                      9
                      A                      A                      A
 Frequencies --    199.5656               238.2621               260.8961
 Red. masses --      5.4511                 5.9639                 7.2344
 Frc consts  --      0.1279                 0.1995                 0.2901
 IR Inten    --      0.4999                 0.1106                 1.3651

                     10                     11                     12
                      A                      A                      A
 Frequencies --    278.5762               308.6760               349.8719
 Red. masses --     10.9565                 5.2833                 6.8885
 Frc consts  --      0.5010                 0.2966                 0.4968
 IR Inten    --      1.2162                 0.8685                 0.9945

                     13                     14                     15
                      A                      A                      A
 Frequencies --    375.7524               455.5539               489.4398
 Red. masses --      7.6509                 3.8180                 4.0771
 Frc consts  --      0.6365                 0.4668                 0.5754
 IR Inten    --      0.3299                 2.6480                 1.5912

                     16                     17                     18
                      A                      A                      A
 Frequencies --    543.6490               594.7985               609.2912
 Red. masses --      5.0683                 6.5032                 4.3865
 Frc consts  --      0.8826                 1.3556                 0.9594
 IR Inten    --      1.0536                 1.9975                 2.8825

                     19                     20                     21
                      A                      A                      A
 Frequencies --    629.4257               670.0606               684.0985
 Red. masses --      3.7749                 2.6741                 6.6548
 Frc consts  --      0.8811                 0.7074                 1.8350
 IR Inten    --      0.7589                 2.8630                 0.4751

                     22                     23                     24
                      A                      A                      A
 Frequencies --    770.5204               793.5004               806.5778
 Red. masses --      1.7875                 1.3428                 3.4185
 Frc consts  --      0.6253                 0.4981                 1.3103
 IR Inten    --     26.1164                 2.7761                39.9030

                     25                     26                     27
                      A                      A                      A
 Frequencies --    844.9037               853.6802               868.7600
 Red. masses --      1.5031                 1.3610                 9.5874
 Frc consts  --      0.6322                 0.5844                 4.2633
 IR Inten    --     46.2274                 0.2514                52.7393

                     28                     29                     30
                      A                      A                      A
 Frequencies --    911.9749               931.9413               963.6563
 Red. masses --      2.1658                 2.5146                 1.4969
 Frc consts  --      1.0613                 1.2867                 0.8190
 IR Inten    --      2.2798                 1.2776                 4.5245

                     31                     32                     33
                      A                      A                      A
 Frequencies --    974.2163              1023.1885              1078.5962
 Red. masses --      2.3915                 3.0666                 2.0395
 Frc consts  --      1.3373                 1.8915                 1.3980
 IR Inten    --      3.3372                27.9919                 7.1753

                     34                     35                     36
                      A                      A                      A
 Frequencies --   1104.0268              1159.9478              1187.2642
 Red. masses --      2.6161                 2.3592                 3.3223
 Frc consts  --      1.8787                 1.8702                 2.7592
 IR Inten    --     29.6665                 2.3343               215.8781

                     37                     38                     39
                      A                      A                      A
 Frequencies --   1206.3051              1218.8013              1252.8760
 Red. masses --      1.3965                 1.7290                 1.3288
 Frc consts  --      1.1973                 1.5133                 1.2289
 IR Inten    --     12.7934               104.5060                20.6763

                     40                     41                     42
                      A                      A                      A
 Frequencies --   1257.0100              1270.2209              1277.9490
 Red. masses --      1.2096                 1.3124                 2.3310
 Frc consts  --      1.1261                 1.2476                 2.2430
 IR Inten    --      0.9329                 1.2215                41.3830

                     43                     44                     45
                      A                      A                      A
 Frequencies --   1287.9615              1317.1493              1341.8861
 Red. masses --      1.5818                 1.5033                 5.7665
 Frc consts  --      1.5460                 1.5366                 6.1178
 IR Inten    --     15.9219                 4.3170                13.3161

                     46                     47                     48
                      A                      A                      A
 Frequencies --   1370.3091              1399.8902              1486.6233
 Red. masses --      7.4146                 1.3820                 1.1920
 Frc consts  --      8.2031                 1.5957                 1.5522
 IR Inten    --     66.9178                77.3506                 1.6196

                     49                     50                     51
                      A                      A                      A
 Frequencies --   1487.9904              1501.2205              1525.4303
 Red. masses --      3.7768                 1.0899                 1.1525
 Frc consts  --      4.9269                 1.4472                 1.5801
 IR Inten    --     24.9403                 4.0395                18.3704

                     52                     53                     54
                      A                      A                      A
 Frequencies --   1545.8564              1637.1689              1674.5997
 Red. masses --      4.9127                 9.2997                 8.2890
 Frc consts  --      6.9169                14.6861                13.6954
 IR Inten    --    392.1181               102.8160                93.8893

                     55                     56                     57
                      A                      A                      A
 Frequencies --   3041.1447              3075.8337              3080.6427
 Red. masses --      1.0858                 1.0575                 1.0584
 Frc consts  --      5.9167                 5.8946                 5.9181
 IR Inten    --     22.7657                36.0115                32.1876

                     58                     59                     60
                      A                      A                      A
 Frequencies --   3083.7559              3127.5789              3136.2923
 Red. masses --      1.0624                 1.1085                 1.1094
 Frc consts  --      5.9525                 6.3883                 6.4294
 IR Inten    --     13.1327                 7.4817                18.2507

                     61                     62                     63
                      A                      A                      A
 Frequencies --   3146.8962              3240.4102              3260.7150
 Red. masses --      1.1083                 1.0924                 1.0907
 Frc consts  --      6.4664                 6.7585                 6.8322
 IR Inten    --     44.5349                 0.4528                 1.1624

 - Thermochemistry -
 -------------------
 Temperature   298.150 Kelvin.  Pressure   1.00000 Atm.
 Atom     1 has atomic number  9 and mass  18.99840

 Molecular mass:   261.98048 amu.
 Principal axes and moments of inertia in atomic units:
                           1         2         3
     Eigenvalues --  2617.603056051.506008481.53745
           X            0.99912   0.04186  -0.00151
           Y           -0.04187   0.99910  -0.00633
           Z            0.00125   0.00639   0.99998
 This molecule is an asymmetric top.
 Rotational symmetry number  1.
 Warning -- assumption of classical behavior for rotation
           may cause significant error
 Rotational temperatures (Kelvin)      0.03309     0.01431     0.01021
 Rotational constants (GHZ):           0.68946     0.29823     0.21278
 Zero-point vibrational energy     447613.2 (Joules/Mol)
                                  106.98212 (Kcal/Mol)
 Warning -- explicit consideration of  18 degrees of freedom as
           vibrations may cause significant error
 Vibrational temperatures:     51.44    89.14   125.44   166.42   206.93
          (Kelvin)            255.39   287.13   342.81   375.37   400.81
                              444.12   503.39   540.62   655.44   704.19
                              782.19   855.78   876.63   905.60   964.07
                              984.27  1108.61  1141.67  1160.49  1215.63
                             1228.26  1249.95  1312.13  1340.86  1386.49
                             1401.68  1472.14  1551.86  1588.45  1668.91
                             1708.21  1735.60  1753.58  1802.61  1808.56
                             1827.56  1838.68  1853.09  1895.08  1930.67
                             1971.57  2014.13  2138.92  2140.89  2159.92
                             2194.75  2224.14  2355.52  2409.38  4375.53
                             4425.44  4432.36  4436.84  4499.89  4512.43
                             4527.68  4662.23  4691.44

 Zero-point correction=                           0.170487 (Hartree/Particle)
 Thermal correction to Energy=                    0.183090
 Thermal correction to Enthalpy=                  0.184035
 Thermal correction to Gibbs Free Energy=         0.129505
 Sum of electronic and zero-point Energies=          -3232.927083
 Sum of electronic and thermal Energies=             -3232.914479
 Sum of electronic and thermal Enthalpies=           -3232.913535
 Sum of electronic and thermal Free Energies=        -3232.968065

                     E (Thermal)             CV                S
                      KCal/Mol        Cal/Mol-Kelvin    Cal/Mol-Kelvin
 Total                  114.891             46.961            114.768
 Electronic               0.000              0.000              0.000
 Translational            0.889              2.981             42.589
 Rotational               0.889              2.981             33.263
 Vibrational            113.114             41.000             38.916
 Vibration     1          0.594              1.982              5.481
 Vibration     2          0.597              1.972              4.394
 Vibration     3          0.601              1.958              3.722
 Vibration     4          0.608              1.936              3.171
 Vibration     5          0.616              1.909              2.752
 Vibration     6          0.628              1.870              2.355
 Vibration     7          0.638              1.840              2.137
 Vibration     8          0.656              1.782              1.816
 Vibration     9          0.669              1.744              1.656
 Vibration    10          0.679              1.713              1.542
 Vibration    11          0.698              1.657              1.369
 Vibration    12          0.727              1.576              1.167
 Vibration    13          0.747              1.522              1.056
 Vibration    14          0.814              1.349              0.779
 Vibration    15          0.845              1.273              0.685
 Vibration    16          0.899              1.154              0.557
 Vibration    17          0.952              1.043              0.459
 Vibration    18          0.968              1.012              0.434

 Optimization completed.
    -- Stationary point found.
 Normal termination of Gaussian 16 at Tue Sep 17 09:53:58 2024.

 ----------------------------------------------------------------------
 #p M062X/def2tzvp geom=check guess=read scf(xqc,tight) integral(grid=u
 ltrafine) scrf(SMD, solvent=1,4-Dioxane) polar prop=efg volume
 ----------------------------------------------------------------------

 ---
 spe
 ---
 Structure from the checkpoint file:  "smiles_00060_conf_5.chk"
 Charge =  0 Multiplicity = 1

 SCF Done:  E(RM062X) =  -3235.54725361     A.U. after   12 cycles

  Exact polarizability:     195.808      -4.789     174.666       3.845       0.018     101.963
 Approx polarizability:     194.965      -7.059     194.899       4.876       2.450     122.805

 Normal termination of Gaussian 16 at Tue Sep 17 10:54:12 2024.
 Gaussian 16:  ES64L-G16RevC.02  7-Dec-2021

 ----------------------------------------------------------------------
 #p M062X/def2tzvp geom=check guess=read scf(xqc,tight) integral(grid=u
 ltrafine) scrf(SMD, solvent=1,4-Dioxane) nmr=giao
 ----------------------------------------------------------------------

 ---
 spe
 ---
 Structure from the checkpoint file:  "smiles_00060_conf_5.chk"
 Charge =  0 Multiplicity = 1

                         Standard orientation:
 ---------------------------------------------------------------------
 Center     Atomic      Atomic             Coordinates (Angstroms)
 Number     Number       Type             X           Y           Z
 ---------------------------------------------------------------------
      1          9           0        1.932998    3.270154    0.188195
      2          6           0        1.228098    2.133312    0.077649
      3          6           0       -0.149643    2.177539   -0.019313
      4          6           0       -0.865877    0.977003   -0.135626
      5          8           0       -2.216783    1.103573   -0.226279
      6          6           0       -2.998592   -0.069534   -0.407158
      7          6           0       -4.506533    0.215201   -0.474693
      8          6           0       -4.733903   -1.069762    0.367669
      9          6           0       -3.247893   -0.994258    0.810778
     10          6           0       -0.189287   -0.246932   -0.150590
     11          6           0        1.203769   -0.256813   -0.053137
     12         35           0        2.141414   -1.907174   -0.068492
     13          6           0        1.924984    0.922665    0.061208
     14          9           0        3.261544    0.928926    0.157961
     15          1           0       -0.669678    3.127031   -0.008440
     16          1           0       -2.638657   -0.624376   -1.282869
     17          1           0       -4.734624    1.117094    0.099707
     18          1           0       -4.968488    0.288542   -1.461690
     19          1           0       -4.927493   -1.942870   -0.261339
     20          1           0       -5.493371   -1.027921    1.150725
     21          1           0       -3.128875   -0.426028    1.737492
     22          1           0       -2.679592   -1.924717    0.884257
     23          1           0       -0.716074   -1.186473   -0.226502
 ---------------------------------------------------------------------

 SCF Done:  E(RM062X) =  -3235.54725361     A.U. after    1 cycles

      1  F    Isotropic =   313.1959   Anisotropy =   152.5745

      2  C    Isotropic =    11.6327   Anisotropy =   115.2513

      3  C    Isotropic =    60.8943   Anisotropy =   140.5130

      4  C    Isotropic =     9.5581   Anisotropy =   156.6233

      5  O    Isotropic =   164.1580   Anisotropy =    80.2932

      6  C    Isotropic =   111.2760   Anisotropy =    67.1579

      7  C    Isotropic =   155.8040   Anisotropy =    33.5297

      8  C    Isotropic =   174.0247   Anisotropy =    17.2497

      9  C    Isotropic =   153.6727   Anisotropy =    30.7124

     10  C    Isotropic =    56.6499   Anisotropy =   142.7832

     11  C    Isotropic =    39.7150   Anisotropy =   130.1303

     12  Br   Isotropic =  2156.5864   Anisotropy =  1078.9922

     13  C    Isotropic =    22.2612   Anisotropy =   104.1519

     14  F    Isotropic =   323.7070   Anisotropy =   134.6933

     15  H    Isotropic =    24.5341   Anisotropy =     6.8797

     16  H    Isotropic =    27.3814   Anisotropy =     3.7295

     17  H    Isotropic =    29.5889   Anisotropy =     6.3127

     18  H    Isotropic =    29.4860   Anisotropy =     9.6843

     19  H    Isotropic =    30.2254   Anisotropy =     8.9746

     20  H    Isotropic =    30.0808   Anisotropy =    10.7672

     21  H    Isotropic =    30.0004   Anisotropy =     4.1775

     22  H    Isotropic =    29.3693   Anisotropy =     8.0849

     23  H    Isotropic =    24.6644   Anisotropy =    14.2799

 The electronic state is 1-A.
 Alpha  occ. eigenvalues -- -485.38839 -63.37305 -57.19262 -57.19011 -57.19000
 Alpha  occ. eigenvalues --  -25.27482 -25.27466 -19.66822 -10.65164 -10.64610
 Alpha  occ. eigenvalues --  -10.62865 -10.62158 -10.60329 -10.56563 -10.56197
 Alpha  occ. eigenvalues --  -10.54082 -10.54047 -10.53917  -9.03947  -6.86394
 Alpha  occ. eigenvalues --   -6.85462  -6.85427  -2.89770  -2.89437  -2.89399
 Alpha  occ. eigenvalues --   -2.88532  -2.88531  -1.39670  -1.38283  -1.20418
 Alpha  occ. eigenvalues --   -0.99779  -0.95655  -0.91565  -0.86445  -0.83983
 Alpha  occ. eigenvalues --   -0.77420  -0.76036  -0.73152  -0.70718  -0.65904
 Alpha  occ. eigenvalues --   -0.65345  -0.63406  -0.62194  -0.60107  -0.59261
 Alpha  occ. eigenvalues --   -0.56965  -0.56699  -0.55052  -0.53673  -0.52035
 Alpha  occ. eigenvalues --   -0.50997  -0.49464  -0.48632  -0.46014  -0.45792
 Alpha  occ. eigenvalues --   -0.44589  -0.42862  -0.40655  -0.40065  -0.38555
 Alpha  occ. eigenvalues --   -0.37575  -0.36254  -0.36121  -0.31435  -0.28938
 Alpha virt. eigenvalues --   -0.00213   0.02033   0.02391   0.06722   0.08385
 Alpha virt. eigenvalues --    0.09650   0.09864   0.10068   0.11693   0.13049
 Alpha virt. eigenvalues --    0.13522   0.14793   0.16205   0.16880   0.17683

 Mulliken charges:
               1
     1  F   -0.193425
     2  C    0.257108
     3  C   -0.315067
     4  C    0.298000
     5  O   -0.270941
     6  C   -0.070001
     7  C   -0.265409
     8  C   -0.265706
     9  C   -0.279597
    10  C   -0.232601
    11  C   -0.049574
    12  Br  -0.063833
    13  C    0.180374
    14  F   -0.187741
    15  H    0.188053
    16  H    0.164326
    17  H    0.157879
    18  H    0.144205
    19  H    0.151974
    20  H    0.144729
    21  H    0.159859
    22  H    0.148358
    23  H    0.199033
 Sum of Mulliken charges =  -0.00000

 Dipole moment (field-independent basis, Debye):
    X=             -4.4820    Y=             -1.4136    Z=             -0.2359  Tot=              4.7055
 Quadrupole moment (field-independent basis, Debye-Ang):
   XX=            -92.2247   YY=            -93.8047   ZZ=            -93.1493
   XY=             -0.5767   XZ=             -0.1342   YZ=              0.5243

 Normal termination of Gaussian 16 at Tue Sep 17 11:16:23 2024.
