 Gaussian 16, Revision C.02,

 ----------------------------------------------------------------------
 #p B3LYP/6-31G(d,p) EmpiricalDispersion=GD3BJ opt freq scf(xqc,tight)
 integral(grid=ultrafine)
 ----------------------------------------------------------------------

 ----------------------------------
 opt-freq conformers_unique/conf_ab
 ----------------------------------
 Symbolic Z-matrix:
 Charge =  0 Multiplicity = 1

 SCF Done:  E(RB3LYP) =  -3109.91982434     A.U. after   14 cycles
 SCF Done:  E(RB3LYP) =  -3109.92149702     A.U. after   12 cycles
 SCF Done:  E(RB3LYP) =  -3109.92093085     A.U. after   13 cycles
 SCF Done:  E(RB3LYP) =  -3109.92179499     A.U. after   12 cycles
 SCF Done:  E(RB3LYP) =  -3109.92186316     A.U. after   11 cycles
 SCF Done:  E(RB3LYP) =  -3109.92194714     A.U. after   12 cycles
 SCF Done:  E(RB3LYP) =  -3109.92197237     A.U. after   11 cycles
 SCF Done:  E(RB3LYP) =  -3109.92200554     A.U. after   11 cycles
 SCF Done:  E(RB3LYP) =  -3109.92201480     A.U. after   10 cycles
 SCF Done:  E(RB3LYP) =  -3109.92201952     A.U. after   10 cycles
 SCF Done:  E(RB3LYP) =  -3109.92202510     A.U. after    8 cycles
 SCF Done:  E(RB3LYP) =  -3109.92202521     A.U. after    8 cycles
 SCF Done:  E(RB3LYP) =  -3109.92202538     A.U. after    8 cycles
 SCF Done:  E(RB3LYP) =  -3109.92202557     A.U. after    9 cycles
 SCF Done:  E(RB3LYP) =  -3109.92202577     A.U. after    9 cycles
 SCF Done:  E(RB3LYP) =  -3109.92202594     A.U. after    9 cycles
 SCF Done:  E(RB3LYP) =  -3109.92202598     A.U. after    7 cycles
 Optimization completed.
    -- Stationary point found.
 Normal termination of Gaussian 16 at Tue Sep 17 10:01:21 2024.

 ----------------------------------------------------------------------
 #P Geom=AllCheck Guess=TCheck SCRF=Check GenChk RB3LYP/6-31G(d,p) Freq
 ----------------------------------------------------------------------

 Structure from the checkpoint file:  "smiles_00069_conf_1.chk"
 ----------------------------------
 opt-freq conformers_unique/conf_ab
 ----------------------------------
 Charge =  0 Multiplicity = 1

 SCF Done:  E(RB3LYP) =  -3109.92202598     A.U. after    1 cycles

                      1                      2                      3
                      A                      A                      A
 Frequencies --     12.9302                18.8669                41.5218
 Red. masses --      3.8485                 3.7339                 6.4829
 Frc consts  --      0.0004                 0.0008                 0.0066
 IR Inten    --      0.1096                 0.4984                 0.3577

                      4                      5                      6
                      A                      A                      A
 Frequencies --     59.4298               103.7330               157.6273
 Red. masses --      3.4572                 3.7148                 3.5799
 Frc consts  --      0.0072                 0.0236                 0.0524
 IR Inten    --      0.5590                 0.5926                 2.5458

                      7                      8                      9
                      A                      A                      A
 Frequencies --    167.0504               221.2259               265.3905
 Red. masses --      4.3106                 4.0399                 1.3243
 Frc consts  --      0.0709                 0.1165                 0.0550
 IR Inten    --      1.5166                 1.7660                 0.2694

                     10                     11                     12
                      A                      A                      A
 Frequencies --    284.7778               325.4477               340.5552
 Red. masses --      7.7199                 5.3270                 5.1099
 Frc consts  --      0.3689                 0.3324                 0.3492
 IR Inten    --      2.6309                 4.4266                 6.6099

                     13                     14                     15
                      A                      A                      A
 Frequencies --    381.3115               420.9479               434.4405
 Red. masses --      3.1304                 2.9706                 2.2095
 Frc consts  --      0.2682                 0.3101                 0.2457
 IR Inten    --      7.5409                 0.0712                 2.1757

                     16                     17                     18
                      A                      A                      A
 Frequencies --    508.9337               575.6009               648.1048
 Red. masses --      3.2037                 5.8825                 6.2380
 Frc consts  --      0.4889                 1.1483                 1.5438
 IR Inten    --      8.8333                 6.3027                 1.6750

                     19                     20                     21
                      A                      A                      A
 Frequencies --    655.8978               716.3739               771.5607
 Red. masses --      4.9724                 4.3236                 3.8858
 Frc consts  --      1.2603                 1.3073                 1.3629
 IR Inten    --      8.6975                 3.8743                21.1222

                     22                     23                     24
                      A                      A                      A
 Frequencies --    813.6458               826.2089               845.0983
 Red. masses --      1.1227                 1.9759                 1.2503
 Frc consts  --      0.4379                 0.7947                 0.5261
 IR Inten    --      0.1229                20.1213                 0.1440

                     25                     26                     27
                      A                      A                      A
 Frequencies --    860.7109               877.5735               957.5137
 Red. masses --      2.3760                 3.2600                 2.9826
 Frc consts  --      1.0371                 1.4792                 1.6111
 IR Inten    --     16.9249                 1.5571                 2.6248

                     28                     29                     30
                      A                      A                      A
 Frequencies --    968.2216               974.2253               977.0165
 Red. masses --      1.9834                 1.3630                 1.5183
 Frc consts  --      1.0955                 0.7622                 0.8539
 IR Inten    --      5.9454                 0.3054                 0.2315

                     31                     32                     33
                      A                      A                      A
 Frequencies --   1031.0274              1065.8964              1096.0635
 Red. masses --      4.8490                 3.2360                 2.6203
 Frc consts  --      3.0370                 2.1661                 1.8547
 IR Inten    --     40.5855                56.1865                28.8026

                     34                     35                     36
                      A                      A                      A
 Frequencies --   1130.2129              1142.9035              1163.0035
 Red. masses --      1.4713                 2.0731                 1.3518
 Frc consts  --      1.1073                 1.5955                 1.0773
 IR Inten    --     17.3488                16.2594               117.6705

                     37                     38                     39
                      A                      A                      A
 Frequencies --   1186.2726              1210.6135              1222.2106
 Red. masses --      1.5493                 1.1289                 2.6806
 Frc consts  --      1.2846                 0.9748                 2.3592
 IR Inten    --      4.1603                 0.2226                15.4728

                     40                     41                     42
                      A                      A                      A
 Frequencies --   1293.2527              1299.1737              1321.4576
 Red. masses --      2.4799                 1.1875                 1.6807
 Frc consts  --      2.4437                 1.1809                 1.7292
 IR Inten    --    266.0387                39.8464                79.3421

                     43                     44                     45
                      A                      A                      A
 Frequencies --   1333.8565              1355.4756              1404.3976
 Red. masses --      1.6122                 2.9797                 1.3310
 Frc consts  --      1.6900                 3.2256                 1.5467
 IR Inten    --      1.5344                 5.0304                 5.5492

                     46                     47                     48
                      A                      A                      A
 Frequencies --   1439.1494              1448.3909              1489.1964
 Red. masses --      1.4054                 2.6881                 1.1036
 Frc consts  --      1.7150                 3.3225                 1.4420
 IR Inten    --      9.0227                 7.8106                 9.0190

                     49                     50                     51
                      A                      A                      A
 Frequencies --   1500.7392              1512.3521              1532.2172
 Red. masses --      1.0394                 1.0502                 1.1225
 Frc consts  --      1.3793                 1.4152                 1.5526
 IR Inten    --      4.9675                 2.3475                 5.8199

                     52                     53                     54
                      A                      A                      A
 Frequencies --   1533.2296              1630.3582              1651.0447
 Red. masses --      2.1721                 6.8878                 5.7705
 Frc consts  --      3.0085                10.7869                 9.2679
 IR Inten    --     57.5806                 0.2831                 5.7283

                     55                     56                     57
                      A                      A                      A
 Frequencies --   1830.0719              3056.9835              3068.4620
 Red. masses --     11.4320                 1.0354                 1.0583
 Frc consts  --     22.5584                 5.7008                 5.8711
 IR Inten    --    238.6570                14.3196                18.6011

                     58                     59                     60
                      A                      A                      A
 Frequencies --   3080.3397              3109.5077              3132.9833
 Red. masses --      1.0611                 1.1077                 1.1020
 Frc consts  --      5.9323                 6.3105                 6.3731
 IR Inten    --     11.7453                 6.4101                23.7909

                     61                     62                     63
                      A                      A                      A
 Frequencies --   3140.1958              3146.4007              3192.1743
 Red. masses --      1.1052                 1.1045                 1.0896
 Frc consts  --      6.4207                 6.4421                 6.5416
 IR Inten    --     36.9038                 5.4709                 6.6014

                     64                     65                     66
                      A                      A                      A
 Frequencies --   3197.9853              3221.7790              3223.2078
 Red. masses --      1.0891                 1.0939                 1.0944
 Frc consts  --      6.5624                 6.6900                 6.6992
 IR Inten    --      5.9977                 4.7069                 0.3217

 - Thermochemistry -
 -------------------
 Temperature   298.150 Kelvin.  Pressure   1.00000 Atm.
 Atom     1 has atomic number  6 and mass  12.00000

 Molecular mass:   241.99424 amu.
 Principal axes and moments of inertia in atomic units:
                           1         2         3
     Eigenvalues --  1443.040518230.820979026.31634
           X            0.99958  -0.02860   0.00430
           Y            0.02858   0.99958   0.00407
           Z           -0.00442  -0.00395   0.99998
 This molecule is an asymmetric top.
 Rotational symmetry number  1.
 Warning -- assumption of classical behavior for rotation
           may cause significant error
 Rotational temperatures (Kelvin)      0.06002     0.01052     0.00960
 Rotational constants (GHZ):           1.25065     0.21927     0.19994
 Zero-point vibrational energy     500066.1 (Joules/Mol)
                                  119.51867 (Kcal/Mol)
 Warning -- explicit consideration of  17 degrees of freedom as
           vibrations may cause significant error
 Vibrational temperatures:     18.60    27.15    59.74    85.51   149.25
          (Kelvin)            226.79   240.35   318.29   381.84   409.73
                              468.25   489.98   548.62   605.65   625.06
                              732.24   828.16   932.48   943.69  1030.70
                             1110.10  1170.65  1188.73  1215.91  1238.37
                             1262.63  1377.65  1393.05  1401.69  1405.71
                             1483.42  1533.59  1576.99  1626.12  1644.38
                             1673.30  1706.78  1741.80  1758.49  1860.70
                             1869.22  1901.28  1919.12  1950.23  2020.61
                             2070.62  2083.91  2142.62  2159.23  2175.94
                             2204.52  2205.98  2345.72  2375.49  2633.07
                             4398.32  4414.83  4431.92  4473.89  4507.66
                             4518.04  4526.97  4592.83  4601.19  4635.42
                             4637.48

 Zero-point correction=                           0.190465 (Hartree/Particle)
 Thermal correction to Energy=                    0.203494
 Thermal correction to Enthalpy=                  0.204438
 Thermal correction to Gibbs Free Energy=         0.146238
 Sum of electronic and zero-point Energies=          -3109.731561
 Sum of electronic and thermal Energies=             -3109.718532
 Sum of electronic and thermal Enthalpies=           -3109.717588
 Sum of electronic and thermal Free Energies=        -3109.775787

                     E (Thermal)             CV                S
                      KCal/Mol        Cal/Mol-Kelvin    Cal/Mol-Kelvin
 Total                  127.695             46.343            122.492
 Electronic               0.000              0.000              0.000
 Translational            0.889              2.981             42.352
 Rotational               0.889              2.981             33.038
 Vibrational            125.917             40.381             47.101
 Vibration     1          0.593              1.987              7.500
 Vibration     2          0.593              1.986              6.750
 Vibration     3          0.594              1.981              5.185
 Vibration     4          0.597              1.974              4.476
 Vibration     5          0.605              1.946              3.383
 Vibration     6          0.621              1.894              2.578
 Vibration     7          0.624              1.883              2.468
 Vibration     8          0.648              1.809              1.949
 Vibration     9          0.671              1.736              1.626
 Vibration    10          0.683              1.702              1.505
 Vibration    11          0.710              1.625              1.283
 Vibration    12          0.720              1.594              1.210
 Vibration    13          0.751              1.510              1.034
 Vibration    14          0.783              1.425              0.889
 Vibration    15          0.795              1.395              0.844
 Vibration    16          0.864              1.230              0.636
 Vibration    17          0.932              1.084              0.494

 Optimization completed.
    -- Stationary point found.
 Normal termination of Gaussian 16 at Tue Sep 17 10:04:20 2024.

 ----------------------------------------------------------------------
 #p M062X/def2tzvp geom=check guess=read scf(xqc,tight) integral(grid=u
 ltrafine) scrf(SMD, solvent=1,4-Dioxane) polar prop=efg volume
 ----------------------------------------------------------------------

 ---
 spe
 ---
 Structure from the checkpoint file:  "smiles_00069_conf_1.chk"
 Charge =  0 Multiplicity = 1

 SCF Done:  E(RM062X) =  -3112.33746162     A.U. after   12 cycles

 The electronic state is 1-A.
 Alpha  occ. eigenvalues -- -485.37550 -63.36031 -57.17975 -57.17740 -57.17735
 Alpha  occ. eigenvalues --  -19.67240 -19.62020 -10.67661 -10.60438 -10.59314
 Alpha  occ. eigenvalues --  -10.56678 -10.55809 -10.55808 -10.55782 -10.55475
 Alpha  occ. eigenvalues --  -10.55452 -10.53080  -9.02676  -6.85080  -6.84210
 Alpha  occ. eigenvalues --   -6.84191  -2.88456  -2.88141  -2.88118  -2.87308
 Alpha  occ. eigenvalues --   -2.87308  -1.23256  -1.14186  -0.98547  -0.91941
 Alpha  occ. eigenvalues --   -0.88064  -0.85743  -0.85147  -0.79128  -0.72607
 Alpha  occ. eigenvalues --   -0.70732  -0.67346  -0.65432  -0.59493  -0.58344
 Alpha  occ. eigenvalues --   -0.56668  -0.55664  -0.54593  -0.53415  -0.50506
 Alpha  occ. eigenvalues --   -0.50107  -0.47604  -0.47246  -0.46424  -0.45881
 Alpha  occ. eigenvalues --   -0.44825  -0.42663  -0.42341  -0.41468  -0.40650
 Alpha  occ. eigenvalues --   -0.38287  -0.37567  -0.35642  -0.35198  -0.32197
 Alpha  occ. eigenvalues --   -0.29455
 Alpha virt. eigenvalues --    0.00166   0.00698   0.03521   0.05278   0.06820
 Alpha virt. eigenvalues --    0.09169   0.09954   0.10612   0.11475   0.12710
 Alpha virt. eigenvalues --    0.13255   0.13859   0.14509   0.15325   0.15801

 Mulliken charges:
               1
     1  C   -0.430803
     2  C   -0.102743
     3  O   -0.273538
     4  C    0.393647
     5  O   -0.357841
     6  C   -0.416985
     7  C    0.108525
     8  C   -0.197406
     9  C   -0.150083
    10  C    0.031332
    11  Br  -0.116176
    12  C   -0.152506
    13  C   -0.185604
    14  H    0.151685
    15  H    0.150130
    16  H    0.151093
    17  H    0.151041
    18  H    0.149746
    19  H    0.199135
    20  H    0.186131
    21  H    0.174705
    22  H    0.180935
    23  H    0.181723
    24  H    0.173858
 Sum of Mulliken charges =  -0.00000

 Dipole moment (field-independent basis, Debye):
    X=             -1.7594    Y=              1.0767    Z=              1.6515  Tot=              2.6424
 Quadrupole moment (field-independent basis, Debye-Ang):
   XX=            -92.2383   YY=            -84.4544   ZZ=            -90.2292
   XY=             -9.3277   XZ=             -5.7076   YZ=             -1.8343

  Exact polarizability:     204.993      13.503     155.031     -12.077      15.372     123.132
 Approx polarizability:     199.220      16.553     173.916     -14.095      22.331     149.873

 Normal termination of Gaussian 16 at Tue Sep 17 11:24:10 2024.
 Gaussian 16:  ES64L-G16RevC.02  7-Dec-2021

 ----------------------------------------------------------------------
 #p M062X/def2tzvp geom=check guess=read scf(xqc,tight) integral(grid=u
 ltrafine) scrf(SMD, solvent=1,4-Dioxane) nmr=giao
 ----------------------------------------------------------------------

 ---
 spe
 ---
 Structure from the checkpoint file:  "smiles_00069_conf_1.chk"
 Charge =  0 Multiplicity = 1

                         Standard orientation:
 ---------------------------------------------------------------------
 Center     Atomic      Atomic             Coordinates (Angstroms)
 Number     Number       Type             X           Y           Z
 ---------------------------------------------------------------------
      1          6           0       -4.182305    2.513809   -0.130507
      2          6           0       -4.075643    1.098122   -0.658412
      3          8           0       -3.246774    0.355755    0.266449
      4          6           0       -2.973491   -0.918343   -0.083049
      5          8           0       -3.413479   -1.460593   -1.071954
      6          6           0       -2.006459   -1.549620    0.905942
      7          6           0       -0.597449   -1.054940    0.648391
      8          6           0       -0.157891    0.160119    1.185707
      9          6           0        1.123741    0.637635    0.922452
     10          6           0        1.969964   -0.110216    0.106619
     11         35           0        3.731821    0.534403   -0.257292
     12          6           0        1.555843   -1.318155   -0.447118
     13          6           0        0.269846   -1.781736   -0.172787
     14          1           0       -3.194622    2.978512   -0.064723
     15          1           0       -4.637194    2.526549    0.863865
     16          1           0       -4.802822    3.115357   -0.801320
     17          1           0       -3.615353    1.059096   -1.649942
     18          1           0       -5.051062    0.607088   -0.727676
     19          1           0       -2.319525   -1.293075    1.921873
     20          1           0       -2.067432   -2.631257    0.777118
     21          1           0       -0.828426    0.742379    1.809703
     22          1           0        1.463643    1.576258    1.343977
     23          1           0        2.226519   -1.885965   -1.081021
     24          1           0       -0.062382   -2.720405   -0.606032
 ---------------------------------------------------------------------

 SCF Done:  E(RM062X) =  -3112.33746162     A.U. after    1 cycles
