 Gaussian 16, Revision C.02,

 ----------------------------------------------------------------------
 #p B3LYP/6-31G(d,p) EmpiricalDispersion=GD3BJ opt freq scf(xqc,tight)
 integral(grid=ultrafine)
 ----------------------------------------------------------------------

 ----------------------------------
 opt-freq conformers_unique/conf_aa
 ----------------------------------
 Symbolic Z-matrix:
 Charge =  0 Multiplicity = 1

 SCF Done:  E(RB3LYP) =  -861.572092714     A.U. after   14 cycles
 SCF Done:  E(RB3LYP) =  -861.573618960     A.U. after   12 cycles
 SCF Done:  E(RB3LYP) =  -861.573677191     A.U. after    9 cycles
 SCF Done:  E(RB3LYP) =  -861.573683986     A.U. after    9 cycles
 Optimization completed.
    -- Stationary point found.
 Normal termination of Gaussian 16 at Tue Sep 17 09:54:40 2024.

 ----------------------------------------------------------------------
 #P Geom=AllCheck Guess=TCheck SCRF=Check GenChk RB3LYP/6-31G(d,p) Freq
 ----------------------------------------------------------------------

 Structure from the checkpoint file:  "smiles_00084_conf_0.chk"
 ----------------------------------
 opt-freq conformers_unique/conf_aa
 ----------------------------------
 Charge =  0 Multiplicity = 1

 SCF Done:  E(RB3LYP) =  -861.573683986     A.U. after    1 cycles

                      1                      2                      3
                      A                      A                      A
 Frequencies --    102.6669               176.8573               223.0276
 Red. masses --      6.9296                 4.1294                 8.2897
 Frc consts  --      0.0430                 0.0761                 0.2429
 IR Inten    --      0.2366                 3.3975                 0.6734

                      4                      5                      6
                      A                      A                      A
 Frequencies --    277.2043               359.7908               410.5041
 Red. masses --      5.0700                14.4979                 3.6931
 Frc consts  --      0.2295                 1.1057                 0.3667
 IR Inten    --      0.3957                 1.5371                 2.1277

                      7                      8                      9
                      A                      A                      A
 Frequencies --    425.1513               487.4040               524.7612
 Red. masses --      4.4876                 2.8446                 4.2154
 Frc consts  --      0.4779                 0.3981                 0.6839
 IR Inten    --      7.3044                 4.3045                 1.7566

                     10                     11                     12
                      A                      A                      A
 Frequencies --    542.7108               619.8551               641.5185
 Red. masses --      6.9038                 7.5487                 3.3992
 Frc consts  --      1.1980                 1.7088                 0.8242
 IR Inten    --      0.5378                10.4013                 0.0002

                     13                     14                     15
                      A                      A                      A
 Frequencies --    655.4414               776.8962               786.8990
 Red. masses --      7.9618                 1.9395                 5.1097
 Frc consts  --      2.0152                 0.6897                 1.8642
 IR Inten    --     12.4918                 1.2947                 0.5430

                     16                     17                     18
                      A                      A                      A
 Frequencies --    808.6403               852.4898               879.2780
 Red. masses --      1.4999                 1.8393                 6.4261
 Frc consts  --      0.5778                 0.7875                 2.9272
 IR Inten    --     10.1388                36.7415                39.6850

                     19                     20                     21
                      A                      A                      A
 Frequencies --    891.1283               958.6027               967.6923
 Red. masses --      1.4709                 5.0553                 1.3910
 Frc consts  --      0.6882                 2.7370                 0.7675
 IR Inten    --     20.1336                10.3602                 0.1797

                     22                     23                     24
                      A                      A                      A
 Frequencies --    984.0237               997.8305              1060.7414
 Red. masses --      1.2957                 1.3406                 2.4975
 Frc consts  --      0.7392                 0.7864                 1.6557
 IR Inten    --      0.1071                 1.4065                 3.5095

                     25                     26                     27
                      A                      A                      A
 Frequencies --   1097.4058              1150.9471              1171.1478
 Red. masses --      2.2118                 1.4648                 1.1482
 Frc consts  --      1.5694                 1.1432                 0.9279
 IR Inten    --     31.5794                10.3373                 0.7249

                     28                     29                     30
                      A                      A                      A
 Frequencies --   1232.4605              1268.5614              1281.3321
 Red. masses --      2.7176                 1.8837                 1.5831
 Frc consts  --      2.4321                 1.7860                 1.5314
 IR Inten    --     19.3549                 1.7611                 1.4641

                     31                     32                     33
                      A                      A                      A
 Frequencies --   1372.7037              1391.3347              1411.5084
 Red. masses --      3.5748                 2.1509                 4.9075
 Frc consts  --      3.9688                 2.4532                 5.7608
 IR Inten    --     14.9007                 6.7349                 3.1916

                     34                     35                     36
                      A                      A                      A
 Frequencies --   1466.5422              1501.3636              1540.9826
 Red. masses --      2.3234                 2.6996                 3.7749
 Frc consts  --      2.9442                 3.5853                 5.2814
 IR Inten    --      0.4764                 7.0885                58.9211

                     37                     38                     39
                      A                      A                      A
 Frequencies --   1614.7756              1651.0417              1669.8259
 Red. masses --      7.0217                 5.7641                 6.6364
 Frc consts  --     10.7875                 9.2576                10.9024
 IR Inten    --      6.8784                36.0182                 3.9855

                     40                     41                     42
                      A                      A                      A
 Frequencies --   3159.8004              3186.2825              3208.0346
 Red. masses --      1.0896                 1.0893                 1.0920
 Frc consts  --      6.4095                 6.5158                 6.6213
 IR Inten    --     27.1050                 6.6654                 3.0724

                     43                     44                     45
                      A                      A                      A
 Frequencies --   3212.4087              3212.6387              3227.4134
 Red. masses --      1.0962                 1.0883                 1.0965
 Frc consts  --      6.6652                 6.6177                 6.7290
 IR Inten    --     17.4684                 0.4660                 3.5683

 - Thermochemistry -
 -------------------
 Temperature   298.150 Kelvin.  Pressure   1.00000 Atm.
 Atom     1 has atomic number 17 and mass  34.96885

 Molecular mass:   163.01888 amu.
 Principal axes and moments of inertia in atomic units:
                           1         2         3
     Eigenvalues --   648.875973083.739293732.61526
           X            0.99987  -0.01633  -0.00005
           Y            0.01633   0.99987  -0.00002
           Z            0.00005   0.00002   1.00000
 This molecule is an asymmetric top.
 Rotational symmetry number  1.
 Warning -- assumption of classical behavior for rotation
           may cause significant error
 Rotational temperatures (Kelvin)      0.13348     0.02809     0.02320
 Rotational constants (GHZ):           2.78133     0.58524     0.48351
 Zero-point vibrational energy     331602.6 (Joules/Mol)
                                   79.25493 (Kcal/Mol)
 Warning -- explicit consideration of  11 degrees of freedom as
           vibrations may cause significant error
 Vibrational temperatures:    147.71   254.46   320.89   398.84   517.66
          (Kelvin)            590.62   611.70   701.27   755.01   780.84
                              891.83   923.00   943.03  1117.78  1132.17
                             1163.45  1226.54  1265.08  1282.13  1379.22
                             1392.29  1415.79  1435.66  1526.17  1578.92
                             1655.96  1685.02  1773.24  1825.18  1843.55
                             1975.01  2001.82  2030.85  2110.03  2160.13
                             2217.13  2323.30  2375.48  2402.51  4546.25
                             4584.35  4615.65  4621.94  4622.27  4643.53

 Zero-point correction=                           0.126301 (Hartree/Particle)
 Thermal correction to Energy=                    0.134188
 Thermal correction to Enthalpy=                  0.135132
 Thermal correction to Gibbs Free Energy=         0.092982
 Sum of electronic and zero-point Energies=           -861.447383
 Sum of electronic and thermal Energies=              -861.439496
 Sum of electronic and thermal Enthalpies=            -861.438552
 Sum of electronic and thermal Free Energies=         -861.480702

                     E (Thermal)             CV                S
                      KCal/Mol        Cal/Mol-Kelvin    Cal/Mol-Kelvin
 Total                   84.204             31.674             88.713
 Electronic               0.000              0.000              0.000
 Translational            0.889              2.981             41.175
 Rotational               0.889              2.981             30.391
 Vibrational             82.427             25.713             17.147
 Vibration     1          0.605              1.947              3.403
 Vibration     2          0.628              1.871              2.361
 Vibration     3          0.649              1.806              1.934
 Vibration     4          0.678              1.716              1.551
 Vibration     5          0.734              1.555              1.123
 Vibration     6          0.775              1.447              0.925
 Vibration     7          0.787              1.416              0.875
 Vibration     8          0.843              1.278              0.690
 Vibration     9          0.880              1.195              0.599
 Vibration    10          0.898              1.156              0.559
 Vibration    11          0.980              0.990              0.417

 Optimization completed.
    -- Stationary point found.
 Normal termination of Gaussian 16 at Tue Sep 17 09:55:47 2024.

 ----------------------------------------------------------------------
 #p M062X/def2tzvp geom=check guess=read scf(xqc,tight) integral(grid=u
 ltrafine) scrf(SMD, solvent=1,4-Dioxane) polar prop=efg volume
 ----------------------------------------------------------------------

 ---
 spe
 ---
 Structure from the checkpoint file:  "smiles_00084_conf_0.chk"
 Charge =  0 Multiplicity = 1

 SCF Done:  E(RM062X) =  -861.512977519     A.U. after   12 cycles

  Exact polarizability:     225.164      -8.377     143.758       0.007       0.001      70.731
 Approx polarizability:     235.079      -6.975     172.277       0.007       0.001      89.480

 Normal termination of Gaussian 16 at Tue Sep 17 10:23:57 2024.
 Gaussian 16:  ES64L-G16RevC.02  7-Dec-2021

 ----------------------------------------------------------------------
 #p M062X/def2tzvp geom=check guess=read scf(xqc,tight) integral(grid=u
 ltrafine) scrf(SMD, solvent=1,4-Dioxane) nmr=giao
 ----------------------------------------------------------------------

 ---
 spe
 ---
 Structure from the checkpoint file:  "smiles_00084_conf_0.chk"
 Charge =  0 Multiplicity = 1

                         Standard orientation:
 ---------------------------------------------------------------------
 Center     Atomic      Atomic             Coordinates (Angstroms)
 Number     Number       Type             X           Y           Z
 ---------------------------------------------------------------------
      1         17           0       -3.385262   -0.440546   -0.000164
      2          6           0       -1.687096    0.006412   -0.000079
      3          6           0       -1.351819    1.381547   -0.000038
      4          6           0       -0.029438    1.755873    0.000027
      5          6           0        1.002758    0.782195    0.000047
      6          7           0        2.298500    1.208108    0.000131
      7          6           0        3.243659    0.289557    0.000191
      8          6           0        2.998280   -1.106678    0.000110
      9          6           0        1.698588   -1.550928    0.000051
     10          6           0        0.644652   -0.602885    0.000020
     11          6           0       -0.723540   -0.973019   -0.000051
     12          1           0       -2.143844    2.121280   -0.000062
     13          1           0        0.262014    2.800276    0.000059
     14          1           0        4.270148    0.652529    0.000172
     15          1           0        3.831975   -1.800733    0.000105
     16          1           0        1.464291   -2.611739    0.000009
     17          1           0       -1.000904   -2.021528   -0.000080
 ---------------------------------------------------------------------

 SCF Done:  E(RM062X) =  -861.512977519     A.U. after    1 cycles

      1  Cl   Isotropic =   680.6447   Anisotropy =   506.7932

      2  C    Isotropic =    24.4458   Anisotropy =   142.9513

      3  C    Isotropic =    32.6800   Anisotropy =   182.6499

      4  C    Isotropic =    30.3348   Anisotropy =   189.4110

      5  C    Isotropic =    14.2293   Anisotropy =   229.8883

      6  N    Isotropic =  -138.4938   Anisotropy =   623.2853

      7  C    Isotropic =     9.5005   Anisotropy =   205.6198

      8  C    Isotropic =    42.6819   Anisotropy =   203.1867

      9  C    Isotropic =    26.2062   Anisotropy =   216.4093

     10  C    Isotropic =    34.8128   Anisotropy =   237.5316

     11  C    Isotropic =    37.5170   Anisotropy =   162.3182

     12  H    Isotropic =    23.2725   Anisotropy =     9.4666

     13  H    Isotropic =    22.7407   Anisotropy =     7.6271

     14  H    Isotropic =    21.9166   Anisotropy =     7.4992

     15  H    Isotropic =    23.5419   Anisotropy =     7.1672

     16  H    Isotropic =    22.7823   Anisotropy =     9.1515

     17  H    Isotropic =    23.1399   Anisotropy =    10.7012

 The electronic state is 1-A.
 Alpha  occ. eigenvalues -- -102.65020 -14.75701 -10.61414 -10.58849 -10.58525
 Alpha  occ. eigenvalues --  -10.57004 -10.56805 -10.56293 -10.56218 -10.55674
 Alpha  occ. eigenvalues --  -10.55545  -9.81266  -7.53463  -7.52955  -7.52940
 Alpha  occ. eigenvalues --   -1.06268  -0.99524  -0.93518  -0.91534  -0.85247
 Alpha  occ. eigenvalues --   -0.83564  -0.73812  -0.71614  -0.69713  -0.61338
 Alpha  occ. eigenvalues --   -0.59621  -0.58547  -0.53114  -0.52137  -0.50969
 Alpha  occ. eigenvalues --   -0.50127  -0.48723  -0.47679  -0.45346  -0.43915
 Alpha  occ. eigenvalues --   -0.42381  -0.38790  -0.38273  -0.37827  -0.33458
 Alpha  occ. eigenvalues --   -0.30779  -0.29090
 Alpha virt. eigenvalues --   -0.03779  -0.00257   0.03404   0.06218   0.09184
 Alpha virt. eigenvalues --    0.10499   0.11312   0.11405   0.12359   0.13008
 Alpha virt. eigenvalues --    0.13900   0.15247   0.17716   0.18944   0.19332

 Mulliken charges:
               1
     1  Cl  -0.094859
     2  C    0.095012
     3  C   -0.164474
     4  C   -0.229267
     5  C    0.176422
     6  N   -0.249427
     7  C   -0.061914
     8  C   -0.165771
     9  C   -0.161963
    10  C    0.075025
    11  C   -0.234896
    12  H    0.176424
    13  H    0.171193
    14  H    0.162256
    15  H    0.167107
    16  H    0.165095
    17  H    0.174037
 Sum of Mulliken charges =  -0.00000

 Dipole moment (field-independent basis, Debye):
    X=              1.4824    Y=             -1.9055    Z=             -0.0000  Tot=              2.4143
 Quadrupole moment (field-independent basis, Debye-Ang):
   XX=            -67.4458   YY=            -64.0051   ZZ=            -74.0071
   XY=             -8.2404   XZ=             -0.0001   YZ=             -0.0002

 Normal termination of Gaussian 16 at Tue Sep 17 10:33:50 2024.
