 Gaussian 16, Revision C.02,

 ----------------------------------------------------------------------
 #p B3LYP/6-31G(d,p) EmpiricalDispersion=GD3BJ opt freq scf(xqc,tight)
 integral(grid=ultrafine)
 ----------------------------------------------------------------------

 ----------------------------------
 opt-freq conformers_unique/conf_aa
 ----------------------------------
 Symbolic Z-matrix:
 Charge =  0 Multiplicity = 1

 SCF Done:  E(RB3LYP) =  -3140.16608085     A.U. after   15 cycles
 SCF Done:  E(RB3LYP) =  -3140.16746995     A.U. after   12 cycles
 SCF Done:  E(RB3LYP) =  -3140.16760725     A.U. after   10 cycles
 SCF Done:  E(RB3LYP) =  -3140.16762275     A.U. after    9 cycles
 Optimization completed.
    -- Stationary point found.
 Normal termination of Gaussian 16 at Tue Sep 17 09:54:36 2024.

 ----------------------------------------------------------------------
 #P Geom=AllCheck Guess=TCheck SCRF=Check GenChk RB3LYP/6-31G(d,p) Freq
 ----------------------------------------------------------------------

 Structure from the checkpoint file:  "smiles_00071_conf_0.chk"
 ----------------------------------
 opt-freq conformers_unique/conf_aa
 ----------------------------------
 Charge =  0 Multiplicity = 1

 SCF Done:  E(RB3LYP) =  -3140.16762275     A.U. after    2 cycles

                      1                      2                      3
                      A                      A                      A
 Frequencies --    198.2753               224.1621               335.5382
 Red. masses --      6.5549                14.3814                14.2951
 Frc consts  --      0.1518                 0.4258                 0.9482
 IR Inten    --      2.3988                 1.8214                 1.5655

                      4                      5                      6
                      A                      A                      A
 Frequencies --    492.2491               598.6304               635.2034
 Red. masses --      5.8373                 4.3175                13.9560
 Frc consts  --      0.8334                 0.9116                 3.3177
 IR Inten    --      1.1481                12.8697                 0.4004

                      7                      8                      9
                      A                      A                      A
 Frequencies --    734.3636               739.3792               876.8871
 Red. masses --      1.2625                 8.7476                 4.7326
 Frc consts  --      0.4011                 2.8176                 2.1441
 IR Inten    --     35.4521                 7.9970                 4.8269

                     10                     11                     12
                      A                      A                      A
 Frequencies --    896.8280               998.2136              1085.3772
 Red. masses --      1.3107                10.5215                 1.4851
 Frc consts  --      0.6211                 6.1770                 1.0308
 IR Inten    --      1.2815               137.7718                 6.5793

                     13                     14                     15
                      A                      A                      A
 Frequencies --   1193.7362              1342.2889              1463.4738
 Red. masses --      1.8123                 1.9232                 8.0999
 Frc consts  --      1.5216                 2.0415                10.2212
 IR Inten    --      3.2988                 6.9677                72.3065

                     16                     17                     18
                      A                      A                      A
 Frequencies --   1547.6553              3235.6168              3277.2006
 Red. masses --      5.4867                 1.0913                 1.0988
 Frc consts  --      7.7431                 6.7315                 6.9529
 IR Inten    --     46.2172                 5.1191                 1.3916

 - Thermochemistry -
 -------------------
 Temperature   298.150 Kelvin.  Pressure   1.00000 Atm.
 Atom     1 has atomic number 35 and mass  78.91834

 Molecular mass:   162.90913 amu.
 Principal axes and moments of inertia in atomic units:
                           1         2         3
     Eigenvalues --   333.617701557.060171890.67787
           X            0.99992   0.01234  -0.00005
           Y           -0.01234   0.99992   0.00004
           Z            0.00005  -0.00004   1.00000
 This molecule is an asymmetric top.
 Rotational symmetry number  1.
 Rotational temperatures (Kelvin)      0.25962     0.05563     0.04581
 Rotational constants (GHZ):           5.40961     1.15907     0.95455
 Zero-point vibrational energy     118879.4 (Joules/Mol)
                                   28.41285 (Kcal/Mol)
 Warning -- explicit consideration of   5 degrees of freedom as
           vibrations may cause significant error
 Vibrational temperatures:    285.27   322.52   482.76   708.24   861.30
          (Kelvin)            913.92  1056.59  1063.80  1261.64  1290.34
                             1436.21  1561.62  1717.52  1931.25  2105.61
                             2226.73  4655.33  4715.16

 Zero-point correction=                           0.045279 (Hartree/Particle)
 Thermal correction to Energy=                    0.050519
 Thermal correction to Enthalpy=                  0.051463
 Thermal correction to Gibbs Free Energy=         0.014663
 Sum of electronic and zero-point Energies=          -3140.122344
 Sum of electronic and thermal Energies=             -3140.117104
 Sum of electronic and thermal Enthalpies=           -3140.116159
 Sum of electronic and thermal Free Energies=        -3140.152960

                     E (Thermal)             CV                S
                      KCal/Mol        Cal/Mol-Kelvin    Cal/Mol-Kelvin
 Total                   31.701             18.188             77.453
 Electronic               0.000              0.000              0.000
 Translational            0.889              2.981             41.173
 Rotational               0.889              2.981             28.376
 Vibrational             29.924             12.227              7.904
 Vibration     1          0.637              1.842              2.149
 Vibration     2          0.649              1.804              1.925
 Vibration     3          0.717              1.605              1.233
 Vibration     4          0.848              1.267              0.678
 Vibration     5          0.957              1.035              0.452

 Optimization completed.
    -- Stationary point found.
 Normal termination of Gaussian 16 at Tue Sep 17 09:54:50 2024.

 ----------------------------------------------------------------------
 #p M062X/def2tzvp geom=check guess=read scf(xqc,tight) integral(grid=u
 ltrafine) scrf(SMD, solvent=1,4-Dioxane) polar prop=efg volume
 ----------------------------------------------------------------------

 ---
 spe
 ---
 Structure from the checkpoint file:  "smiles_00071_conf_0.chk"
 Charge =  0 Multiplicity = 1

 SCF Done:  E(RM062X) =  -3142.63837413     A.U. after   12 cycles

  Exact polarizability:     118.665       1.723      87.966       0.002      -0.001      51.268
 Approx polarizability:     130.678       0.908     115.890       0.002      -0.001      65.473

 Normal termination of Gaussian 16 at Tue Sep 17 09:57:34 2024.
 Gaussian 16:  ES64L-G16RevC.02  7-Dec-2021

 ----------------------------------------------------------------------
 #p M062X/def2tzvp geom=check guess=read scf(xqc,tight) integral(grid=u
 ltrafine) scrf(SMD, solvent=1,4-Dioxane) nmr=giao
 ----------------------------------------------------------------------

 ---
 spe
 ---
 Structure from the checkpoint file:  "smiles_00071_conf_0.chk"
 Charge =  0 Multiplicity = 1

                         Standard orientation:
 ---------------------------------------------------------------------
 Center     Atomic      Atomic             Coordinates (Angstroms)
 Number     Number       Type             X           Y           Z
 ---------------------------------------------------------------------
      1         35           0       -1.711235    0.022101   -0.000104
      2          6           0        0.162386    0.219305    0.000025
      3          7           0        0.771961    1.357754    0.000033
      4          6           0        2.138518    1.161114    0.000087
      5          6           0        2.558444   -0.136996    0.000020
      6         16           0        1.185823   -1.202691    0.000159
      7          1           0        2.791631    2.024729    0.000078
      8          1           0        3.568602   -0.520023   -0.000019
 ---------------------------------------------------------------------

 SCF Done:  E(RM062X) =  -3142.63837413     A.U. after    1 cycles

      1  Br   Isotropic =  1971.3930   Anisotropy =  1414.8374

      2  C    Isotropic =    -0.8189   Anisotropy =    90.0492

      3  N    Isotropic =  -141.8292   Anisotropy =   487.8034

      4  C    Isotropic =    23.5433   Anisotropy =   135.3036

      5  C    Isotropic =    36.5290   Anisotropy =   144.3553

      6  S    Isotropic =   110.6628   Anisotropy =   267.6531

      7  H    Isotropic =    23.5880   Anisotropy =     5.3594

      8  H    Isotropic =    23.7348   Anisotropy =     4.1274

 The electronic state is 1-A.
 Alpha  occ. eigenvalues -- -485.39492 -89.95768 -63.37979 -57.19933 -57.19679
 Alpha  occ. eigenvalues --  -57.19671 -14.77298 -10.66284 -10.58720 -10.58586
 Alpha  occ. eigenvalues --   -9.04647  -8.31499  -6.87099  -6.86152  -6.86125
 Alpha  occ. eigenvalues --   -6.23396  -6.23208  -6.23060  -2.90478  -2.90133
 Alpha  occ. eigenvalues --   -2.90102  -2.89223  -2.89223  -1.09502  -0.91569
 Alpha  occ. eigenvalues --   -0.90735  -0.81952  -0.68509  -0.63115  -0.58900
 Alpha  occ. eigenvalues --   -0.51058  -0.50876  -0.47482  -0.43931  -0.39279
 Alpha  occ. eigenvalues --   -0.36829  -0.36419  -0.35553  -0.30421
 Alpha virt. eigenvalues --   -0.01085   0.01511   0.04653   0.06176   0.10223
 Alpha virt. eigenvalues --    0.11831   0.12328   0.13827   0.17905   0.19431
 Alpha virt. eigenvalues --    0.21465   0.23200   0.24802   0.26047   0.26630

 Mulliken charges:
               1
     1  Br  -0.038546
     2  C    0.067217
     3  N   -0.221384
     4  C   -0.081488
     5  C   -0.188876
     6  S    0.091870
     7  H    0.176407
     8  H    0.194799
 Sum of Mulliken charges =  -0.00000

 Dipole moment (field-independent basis, Debye):
    X=              2.4381    Y=             -1.3938    Z=              0.0001  Tot=              2.8084
 Quadrupole moment (field-independent basis, Debye-Ang):
   XX=            -42.8464   YY=            -55.0607   ZZ=            -55.9087
   XY=              0.5031   XZ=              0.0002   YZ=             -0.0001

 Normal termination of Gaussian 16 at Tue Sep 17 09:58:56 2024.
