 Gaussian 16, Revision C.02,

 ----------------------------------------------------------------------
 #p B3LYP/6-31G(d,p) EmpiricalDispersion=GD3BJ opt freq scf(xqc,tight)
 integral(grid=ultrafine)
 ----------------------------------------------------------------------

 ----------------------------------
 opt-freq conformers_unique/conf_aa
 ----------------------------------
 Symbolic Z-matrix:
 Charge =  0 Multiplicity = 1

 SCF Done:  E(RB3LYP) =  -2917.91668119     A.U. after   15 cycles
 SCF Done:  E(RB3LYP) =  -2917.91742677     A.U. after   12 cycles
 SCF Done:  E(RB3LYP) =  -2917.91745055     A.U. after    9 cycles
 SCF Done:  E(RB3LYP) =  -2917.91745338     A.U. after    8 cycles
 Optimization completed.
    -- Stationary point found.
 Normal termination of Gaussian 16 at Tue Sep 17 09:50:26 2024.

 ----------------------------------------------------------------------
 #P Geom=AllCheck Guess=TCheck SCRF=Check GenChk RB3LYP/6-31G(d,p) Freq
 ----------------------------------------------------------------------

 Structure from the checkpoint file:  "smiles_00093_conf_0.chk"
 ----------------------------------
 opt-freq conformers_unique/conf_aa
 ----------------------------------
 Charge =  0 Multiplicity = 1

 SCF Done:  E(RB3LYP) =  -2917.91745338     A.U. after    1 cycles

                      1                      2                      3
                      A                      A                      A
 Frequencies --     93.2474               154.8261               161.8150
 Red. masses --      3.1850                 5.0572                 3.9380
 Frc consts  --      0.0163                 0.0714                 0.0608
 IR Inten    --      4.8446                 1.0881                 0.0200

                      4                      5                      6
                      A                      A                      A
 Frequencies --    221.3615               281.8846               309.3048
 Red. masses --      2.0777                 1.5751                 8.7128
 Frc consts  --      0.0600                 0.0737                 0.4911
 IR Inten    --      0.8186                 0.4336                 2.6045

                      7                      8                      9
                      A                      A                      A
 Frequencies --    322.4184               454.8380               460.3538
 Red. masses --      4.0944                 3.1252                 4.7934
 Frc consts  --      0.2508                 0.3809                 0.5985
 IR Inten    --      1.8868                 1.7857                 0.2427

                     10                     11                     12
                      A                      A                      A
 Frequencies --    563.4297               582.7495               674.6530
 Red. masses --      4.9413                 4.9858                 7.1221
 Frc consts  --      0.9242                 0.9976                 1.9099
 IR Inten    --      4.7012                 0.3167                 6.6028

                     13                     14                     15
                      A                      A                      A
 Frequencies --    698.4655               791.6675               857.0229
 Red. masses --      2.3357                 1.3651                 6.1905
 Frc consts  --      0.6714                 0.5041                 2.6789
 IR Inten    --      7.5967                33.8659                75.0272

                     16                     17                     18
                      A                      A                      A
 Frequencies --    868.3894               897.1333               978.6261
 Red. masses --      1.5183                 1.3866                 1.2783
 Frc consts  --      0.6746                 0.6575                 0.7213
 IR Inten    --     22.3429                 0.5184                 0.4688

                     19                     20                     21
                      A                      A                      A
 Frequencies --   1010.1655              1075.0411              1096.4047
 Red. masses --      5.3918                 6.2584                 1.9319
 Frc consts  --      3.2417                 4.2615                 1.3683
 IR Inten    --     10.1607                41.6397                19.3202

                     22                     23                     24
                      A                      A                      A
 Frequencies --   1124.1402              1179.7141              1187.8034
 Red. masses --      1.5748                 1.2738                 1.1178
 Frc consts  --      1.1725                 1.0445                 0.9292
 IR Inten    --      6.5894                 0.6785                 8.0836

                     25                     26                     27
                      A                      A                      A
 Frequencies --   1214.0878              1294.9163              1320.0764
 Red. masses --      1.3849                 2.9258                 1.8016
 Frc consts  --      1.2028                 2.8906                 1.8498
 IR Inten    --      3.7476               163.3153                13.9695

                     28                     29                     30
                      A                      A                      A
 Frequencies --   1370.0993              1463.5097              1490.7586
 Red. masses --      3.9805                 2.3055                 1.3827
 Frc consts  --      4.4024                 2.9095                 1.8105
 IR Inten    --     44.9535                22.7742                31.1017

                     31                     32                     33
                      A                      A                      A
 Frequencies --   1505.6652              1518.6808              1533.2277
 Red. masses --      1.0458                 1.1303                 2.0654
 Frc consts  --      1.3969                 1.5360                 2.8607
 IR Inten    --      6.0516                64.1457                56.9307

                     34                     35                     36
                      A                      A                      A
 Frequencies --   1626.8276              1657.7245              3019.3619
 Red. masses --      6.4344                 6.1775                 1.0347
 Frc consts  --     10.0333                10.0021                 5.5578
 IR Inten    --     79.9329               116.0864                44.8438

                     37                     38                     39
                      A                      A                      A
 Frequencies --   3082.6181              3156.1056              3195.0175
 Red. masses --      1.1063                 1.1002                 1.0881
 Frc consts  --      6.1937                 6.4572                 6.5446
 IR Inten    --     38.0048                23.1328                 9.6806

                     40                     41                     42
                      A                      A                      A
 Frequencies --   3221.0667              3231.7710              3248.4227
 Red. masses --      1.0932                 1.0945                 1.0907
 Frc consts  --      6.6826                 6.7352                 6.7813
 IR Inten    --      4.7964                 2.2057                 1.4963

 - Thermochemistry -
 -------------------
 Temperature   298.150 Kelvin.  Pressure   1.00000 Atm.
 Atom     1 has atomic number  6 and mass  12.00000

 Molecular mass:   185.96803 amu.
 Principal axes and moments of inertia in atomic units:
                           1         2         3
     Eigenvalues --   871.069742850.786583710.35590
           X            0.99897  -0.04534  -0.00002
           Y            0.04534   0.99897  -0.00003
           Z            0.00002   0.00003   1.00000
 This molecule is an asymmetric top.
 Rotational symmetry number  1.
 Warning -- assumption of classical behavior for rotation
           may cause significant error
 Rotational temperatures (Kelvin)      0.09943     0.03038     0.02334
 Rotational constants (GHZ):           2.07187     0.63307     0.48641
 Zero-point vibrational energy     324160.4 (Joules/Mol)
                                   77.47620 (Kcal/Mol)
 Warning -- explicit consideration of  11 degrees of freedom as
           vibrations may cause significant error
 Vibrational temperatures:    134.16   222.76   232.82   318.49   405.57
          (Kelvin)            445.02   463.89   654.41   662.35   810.65
                              838.45   970.68  1004.94  1139.03  1233.06
                             1249.42  1290.77  1408.02  1453.40  1546.74
                             1577.48  1617.39  1697.35  1708.98  1746.80
                             1863.10  1899.30  1971.27  2105.66  2144.87
                             2166.32  2185.04  2205.97  2340.64  2385.10
                             4344.19  4435.20  4540.93  4596.92  4634.40
                             4649.80  4673.76

 Zero-point correction=                           0.123466 (Hartree/Particle)
 Thermal correction to Energy=                    0.131702
 Thermal correction to Enthalpy=                  0.132646
 Thermal correction to Gibbs Free Energy=         0.089146
 Sum of electronic and zero-point Energies=          -2917.793987
 Sum of electronic and thermal Energies=             -2917.785752
 Sum of electronic and thermal Enthalpies=           -2917.784807
 Sum of electronic and thermal Free Energies=        -2917.828308

                     E (Thermal)             CV                S
                      KCal/Mol        Cal/Mol-Kelvin    Cal/Mol-Kelvin
 Total                   82.644             30.467             91.554
 Electronic               0.000              0.000              0.000
 Translational            0.889              2.981             41.567
 Rotational               0.889              2.981             30.600
 Vibrational             80.867             24.505             19.387
 Vibration     1          0.602              1.954              3.591
 Vibration     2          0.620              1.897              2.612
 Vibration     3          0.622              1.889              2.528
 Vibration     4          0.648              1.809              1.948
 Vibration     5          0.681              1.707              1.522
 Vibration     6          0.699              1.656              1.366
 Vibration     7          0.707              1.631              1.298
 Vibration     8          0.813              1.350              0.781
 Vibration     9          0.818              1.338              0.765
 Vibration    10          0.919              1.110              0.517
 Vibration    11          0.940              1.069              0.480

 Optimization completed.
    -- Stationary point found.
 Normal termination of Gaussian 16 at Tue Sep 17 09:51:18 2024.

 ----------------------------------------------------------------------
 #p M062X/def2tzvp geom=check guess=read scf(xqc,tight) integral(grid=u
 ltrafine) scrf(SMD, solvent=1,4-Dioxane) polar prop=efg volume
 ----------------------------------------------------------------------

 ---
 spe
 ---
 Structure from the checkpoint file:  "smiles_00093_conf_0.chk"
 Charge =  0 Multiplicity = 1

 SCF Done:  E(RM062X) =  -2920.35503699     A.U. after   12 cycles

  Exact polarizability:     155.364       2.032     134.472       0.002       0.003      70.579
 Approx polarizability:     164.200       4.408     147.103       0.001       0.003      86.317

 Normal termination of Gaussian 16 at Tue Sep 17 10:09:01 2024.
 Gaussian 16:  ES64L-G16RevC.02  7-Dec-2021

 ----------------------------------------------------------------------
 #p M062X/def2tzvp geom=check guess=read scf(xqc,tight) integral(grid=u
 ltrafine) scrf(SMD, solvent=1,4-Dioxane) nmr=giao
 ----------------------------------------------------------------------

 ---
 spe
 ---
 Structure from the checkpoint file:  "smiles_00093_conf_0.chk"
 Charge =  0 Multiplicity = 1

                         Standard orientation:
 ---------------------------------------------------------------------
 Center     Atomic      Atomic             Coordinates (Angstroms)
 Number     Number       Type             X           Y           Z
 ---------------------------------------------------------------------
      1          6           0        2.986556   -1.935960    0.000081
      2          8           0        3.030679   -0.517273   -0.000024
      3          6           0        1.849474    0.159394    0.000010
      4          6           0        1.945302    1.558515    0.000095
      5          6           0        0.790800    2.329289    0.000124
      6          6           0       -0.475190    1.734767    0.000079
      7          6           0       -0.543627    0.348059   -0.000007
      8         35           0       -2.257894   -0.502309   -0.000071
      9          6           0        0.594069   -0.458463   -0.000045
     10          1           0        2.481452   -2.322845   -0.893716
     11          1           0        2.481320   -2.322708    0.893863
     12          1           0        4.024840   -2.268569    0.000181
     13          1           0        2.930796    2.009912    0.000136
     14          1           0        0.870075    3.411913    0.000190
     15          1           0       -1.378466    2.331526    0.000109
     16          1           0        0.486526   -1.533832   -0.000122
 ---------------------------------------------------------------------

 SCF Done:  E(RM062X) =  -2920.35503699     A.U. after    1 cycles

      1  C    Isotropic =   129.6493   Anisotropy =    73.5618

      2  O    Isotropic =   221.9333   Anisotropy =    94.6351

      3  C    Isotropic =     1.9897   Anisotropy =   165.3472

      4  C    Isotropic =    48.4069   Anisotropy =   177.8920

      5  C    Isotropic =    32.7094   Anisotropy =   214.3638

      6  C    Isotropic =    41.5812   Anisotropy =   172.8642

      7  C    Isotropic =    23.7063   Anisotropy =   142.5256

      8  Br   Isotropic =  2073.1546   Anisotropy =  1315.2984

      9  C    Isotropic =    53.9283   Anisotropy =   156.2903

     10  H    Isotropic =    28.2456   Anisotropy =     7.5867

     11  H    Isotropic =    28.2458   Anisotropy =     7.5863

     12  H    Isotropic =    27.8059   Anisotropy =     8.3151

     13  H    Isotropic =    24.2117   Anisotropy =     6.5887

     14  H    Isotropic =    23.8301   Anisotropy =     5.5780

     15  H    Isotropic =    24.0919   Anisotropy =     9.7593

     16  H    Isotropic =    24.2973   Anisotropy =    13.2443

 The electronic state is 1-A.
 Alpha  occ. eigenvalues -- -485.37470 -63.35951 -57.17895 -57.17660 -57.17654
 Alpha  occ. eigenvalues --  -19.66302 -10.61534 -10.60574 -10.58953 -10.55434
 Alpha  occ. eigenvalues --  -10.55393 -10.54867 -10.54521  -9.02595  -6.84997
 Alpha  occ. eigenvalues --   -6.84130  -6.84110  -2.88373  -2.88060  -2.88036
 Alpha  occ. eigenvalues --   -2.87228  -2.87227  -1.19703  -0.97749  -0.89993
 Alpha  occ. eigenvalues --   -0.85666  -0.82806  -0.78796  -0.69370  -0.67964
 Alpha  occ. eigenvalues --   -0.61020  -0.56892  -0.56379  -0.55302  -0.51757
 Alpha  occ. eigenvalues --   -0.49002  -0.48202  -0.46540  -0.43776  -0.43338
 Alpha  occ. eigenvalues --   -0.41354  -0.39734  -0.36704  -0.35136  -0.30807
 Alpha  occ. eigenvalues --   -0.28376
 Alpha virt. eigenvalues --    0.00854   0.02436   0.03527   0.08061   0.10245
 Alpha virt. eigenvalues --    0.11157   0.12477   0.13380   0.14017   0.15309
 Alpha virt. eigenvalues --    0.16108   0.16597   0.18038   0.19873   0.22353

 Mulliken charges:
               1
     1  C   -0.309780
     2  O   -0.283259
     3  C    0.302462
     4  C   -0.237628
     5  C   -0.125210
     6  C   -0.210830
     7  C    0.047898
     8  Br  -0.118063
     9  C   -0.260346
    10  H    0.161613
    11  H    0.161615
    12  H    0.165644
    13  H    0.169937
    14  H    0.166307
    15  H    0.177900
    16  H    0.191741
 Sum of Mulliken charges =  -0.00000

 Dipole moment (field-independent basis, Debye):
    X=              1.7218    Y=             -0.5493    Z=              0.0002  Tot=              1.8073
 Quadrupole moment (field-independent basis, Debye-Ang):
   XX=            -65.2972   YY=            -55.0218   ZZ=            -69.1260
   XY=             -4.7124   XZ=              0.0006   YZ=              0.0004

 Normal termination of Gaussian 16 at Tue Sep 17 10:15:15 2024.
