 Gaussian 16, Revision C.02,

 ----------------------------------------------------------------------
 #p B3LYP/6-31G(d,p) EmpiricalDispersion=GD3BJ opt freq scf(xqc,tight)
 integral(grid=ultrafine)
 ----------------------------------------------------------------------

 ----------------------------------
 opt-freq conformers_unique/conf_aa
 ----------------------------------
 Symbolic Z-matrix:
 Charge =  0 Multiplicity = 1

 SCF Done:  E(RB3LYP) =  -3275.19251267     A.U. after   15 cycles
 SCF Done:  E(RB3LYP) =  -3275.19418446     A.U. after   12 cycles
 SCF Done:  E(RB3LYP) =  -3275.19428242     A.U. after    9 cycles
 SCF Done:  E(RB3LYP) =  -3275.19429194     A.U. after    9 cycles
 SCF Done:  E(RB3LYP) =  -3275.19429254     A.U. after    7 cycles
 Optimization completed.
    -- Stationary point found.
 Normal termination of Gaussian 16 at Tue Sep 17 09:56:25 2024.

 ----------------------------------------------------------------------
 #P Geom=AllCheck Guess=TCheck SCRF=Check GenChk RB3LYP/6-31G(d,p) Freq
 ----------------------------------------------------------------------

 Structure from the checkpoint file:  "smiles_00085_conf_0.chk"
 ----------------------------------
 opt-freq conformers_unique/conf_aa
 ----------------------------------
 Charge =  0 Multiplicity = 1

 SCF Done:  E(RB3LYP) =  -3275.19429254     A.U. after    1 cycles

                      1                      2                      3
                      A                      A                      A
 Frequencies --     36.0554                42.1576                76.8750
 Red. masses --      5.5723                 6.6733                 4.5399
 Frc consts  --      0.0043                 0.0070                 0.0158
 IR Inten    --      0.0000                 4.0463                 0.0839

                      4                      5                      6
                      A                      A                      A
 Frequencies --     85.9109               115.0204               116.1696
 Red. masses --      4.7042                 8.6888                 1.8214
 Frc consts  --      0.0205                 0.0677                 0.0145
 IR Inten    --      0.0089                 1.1132                 0.0000

                      7                      8                      9
                      A                      A                      A
 Frequencies --    129.9899               136.4523               172.2590
 Red. masses --      1.1317                 1.5625                 5.2935
 Frc consts  --      0.0113                 0.0171                 0.0925
 IR Inten    --      0.4356                 0.0000                 9.5258

                     10                     11                     12
                      A                      A                      A
 Frequencies --    210.7661               211.8976               223.0013
 Red. masses --      4.0926                 5.5045                 6.6439
 Frc consts  --      0.1071                 0.1456                 0.1947
 IR Inten    --      0.0000                 3.4434                 0.4947

                     13                     14                     15
                      A                      A                      A
 Frequencies --    248.3378               308.4721               344.8723
 Red. masses --     14.1042                 4.0808                 4.4819
 Frc consts  --      0.5125                 0.2288                 0.3141
 IR Inten    --      0.4499                28.1030                11.6264

                     16                     17                     18
                      A                      A                      A
 Frequencies --    363.0041               394.7905               464.7992
 Red. masses --     11.2381                 6.7348                 8.3655
 Frc consts  --      0.8725                 0.6185                 1.0648
 IR Inten    --      8.2881                 4.6753                 2.0949

                     19                     20                     21
                      A                      A                      A
 Frequencies --    504.4178               545.9308               578.6412
 Red. masses --      6.1070                 6.8525                 7.1470
 Frc consts  --      0.9155                 1.2033                 1.4099
 IR Inten    --      0.0000                18.1753                 1.3828

                     22                     23                     24
                      A                      A                      A
 Frequencies --    706.5279               743.6490               750.4794
 Red. masses --      6.2777                 9.3635                 6.8302
 Frc consts  --      1.8463                 3.0509                 2.2665
 IR Inten    --     10.0687                93.7747                24.7853

                     25                     26                     27
                      A                      A                      A
 Frequencies --    787.6956               796.9748               842.9198
 Red. masses --      4.3722                 7.4944                 5.8645
 Frc consts  --      1.5983                 2.8046                 2.4550
 IR Inten    --     13.7846                 0.0000                17.2622

                     28                     29                     30
                      A                      A                      A
 Frequencies --    914.6159               945.4149               966.5210
 Red. masses --      6.3749                 1.5621                 1.3968
 Frc consts  --      3.1419                 0.8226                 0.7688
 IR Inten    --     11.9636                13.9276                 0.0000

                     31                     32                     33
                      A                      A                      A
 Frequencies --   1009.9759              1016.4723              1032.1227
 Red. masses --      8.3950                 6.8427                 6.8609
 Frc consts  --      5.0453                 4.1655                 4.3062
 IR Inten    --     10.9698                17.9120                29.8289

                     34                     35                     36
                      A                      A                      A
 Frequencies --   1119.5310              1176.4594              1179.2613
 Red. masses --      1.4011                 1.7664                 1.2778
 Frc consts  --      1.0346                 1.4404                 1.0470
 IR Inten    --      0.0095                42.5239                 0.0000

                     37                     38                     39
                      A                      A                      A
 Frequencies --   1179.2965              1185.1822              1216.2039
 Red. masses --      1.2779                 2.6517                 1.5099
 Frc consts  --      1.0471                 2.1946                 1.3158
 IR Inten    --      1.6956                49.8776                 0.1116

                     40                     41                     42
                      A                      A                      A
 Frequencies --   1230.7953              1290.5511              1324.5768
 Red. masses --      2.4839                 3.7248                 9.7806
 Frc consts  --      2.2170                 3.6551                10.1104
 IR Inten    --    109.3118               345.2998                 0.6471

                     43                     44                     45
                      A                      A                      A
 Frequencies --   1368.0301              1443.0842              1462.9431
 Red. masses --      5.2497                 3.1684                 3.5477
 Frc consts  --      5.7886                 3.8876                 4.4736
 IR Inten    --    757.7229                 1.6528                 0.3249

                     46                     47                     48
                      A                      A                      A
 Frequencies --   1485.4119              1485.8618              1496.4203
 Red. masses --      1.3640                 1.3812                 1.0463
 Frc consts  --      1.7732                 1.7966                 1.3805
 IR Inten    --     26.1724                42.9273                 0.0000

                     49                     50                     51
                      A                      A                      A
 Frequencies --   1496.5964              1507.4884              1507.7722
 Red. masses --      1.0463                 1.0560                 1.0575
 Frc consts  --      1.3808                 1.4139                 1.4165
 IR Inten    --     13.4558                 0.6473                10.1962

                     52                     53                     54
                      A                      A                      A
 Frequencies --   1610.5532              1614.4507              1800.2615
 Red. masses --      6.4041                 9.8328                11.6809
 Frc consts  --      9.7872                15.1000                22.3047
 IR Inten    --     85.4605                10.4223               236.4771

                     55                     56                     57
                      A                      A                      A
 Frequencies --   1803.0318              3066.5564              3066.7338
 Red. masses --     11.6685                 1.0301                 1.0301
 Frc consts  --     22.3498                 5.7071                 5.7080
 IR Inten    --    111.4812                37.6432                30.0053

                     58                     59                     60
                      A                      A                      A
 Frequencies --   3143.8049              3143.8760              3182.4583
 Red. masses --      1.1069                 1.1069                 1.1069
 Frc consts  --      6.4459                 6.4462                 6.6052
 IR Inten    --      0.0000                37.8967                 2.0361

                     61                     62                     63
                      A                      A                      A
 Frequencies --   3182.5541              3249.9155              3250.0777
 Red. masses --      1.1069                 1.0935                 1.0921
 Frc consts  --      6.6056                 6.8048                 6.7966
 IR Inten    --     25.3721                 0.7637                 9.7982

 - Thermochemistry -
 -------------------
 Temperature   298.150 Kelvin.  Pressure   1.00000 Atm.
 Atom     1 has atomic number  6 and mass  12.00000

 Molecular mass:   272.96367 amu.
 Principal axes and moments of inertia in atomic units:
                           1         2         3
     Eigenvalues --  4192.074435857.19633**********
           X            1.00000   0.00000  -0.00004
           Y           -0.00000   1.00000  -0.00000
           Z            0.00004   0.00000   1.00000
 This molecule is an asymmetric top.
 Rotational symmetry number  1.
 Warning -- assumption of classical behavior for rotation
           may cause significant error
 Rotational temperatures (Kelvin)      0.02066     0.01479     0.00864
 Rotational constants (GHZ):           0.43051     0.30812     0.18000
 Zero-point vibrational energy     431211.5 (Joules/Mol)
                                  103.06202 (Kcal/Mol)
 Warning -- explicit consideration of  21 degrees of freedom as
           vibrations may cause significant error
 Vibrational temperatures:     51.88    60.66   110.61   123.61   165.49
          (Kelvin)            167.14   187.03   196.32   247.84   303.25
                              304.87   320.85   357.30   443.82   496.19
                              522.28   568.02   668.74   725.74   785.47
                              832.54  1016.54  1069.95  1079.77  1133.32
                             1146.67  1212.77  1315.93  1360.24  1390.61
                             1453.13  1462.48  1484.99  1610.76  1692.66
                             1696.69  1696.74  1705.21  1749.85  1770.84
                             1856.82  1905.77  1968.29  2076.28  2104.85
                             2137.18  2137.82  2153.02  2153.27  2168.94
                             2169.35  2317.23  2322.83  2590.17  2594.16
                             4412.09  4412.35  4523.23  4523.34  4578.85
                             4578.99  4675.90  4676.14

 Zero-point correction=                           0.164240 (Hartree/Particle)
 Thermal correction to Energy=                    0.179044
 Thermal correction to Enthalpy=                  0.179988
 Thermal correction to Gibbs Free Energy=         0.119724
 Sum of electronic and zero-point Energies=          -3275.030053
 Sum of electronic and thermal Energies=             -3275.015248
 Sum of electronic and thermal Enthalpies=           -3275.014304
 Sum of electronic and thermal Free Energies=        -3275.074568

                     E (Thermal)             CV                S
                      KCal/Mol        Cal/Mol-Kelvin    Cal/Mol-Kelvin
 Total                  112.352             51.047            126.837
 Electronic               0.000              0.000              0.000
 Translational            0.889              2.981             42.711
 Rotational               0.889              2.981             33.864
 Vibrational            110.575             45.086             50.261
 Vibration     1          0.594              1.982              5.465
 Vibration     2          0.595              1.980              5.155
 Vibration     3          0.599              1.965              3.969
 Vibration     4          0.601              1.959              3.751
 Vibration     5          0.608              1.937              3.182
 Vibration     6          0.608              1.936              3.163
 Vibration     7          0.612              1.923              2.946
 Vibration     8          0.614              1.917              2.853
 Vibration     9          0.626              1.877              2.411
 Vibration    10          0.643              1.824              2.037
 Vibration    11          0.643              1.823              2.027
 Vibration    12          0.649              1.806              1.935
 Vibration    13          0.662              1.766              1.742
 Vibration    14          0.698              1.658              1.371
 Vibration    15          0.723              1.586              1.190
 Vibration    16          0.737              1.548              1.109
 Vibration    17          0.762              1.481              0.982
 Vibration    18          0.822              1.328              0.752
 Vibration    19          0.860              1.240              0.647
 Vibration    20          0.901              1.149              0.553
 Vibration    21          0.935              1.077              0.488

 Optimization completed.
    -- Stationary point found.
 Normal termination of Gaussian 16 at Tue Sep 17 09:57:59 2024.

 ----------------------------------------------------------------------
 #p M062X/def2tzvp geom=check guess=read scf(xqc,tight) integral(grid=u
 ltrafine) scrf(SMD, solvent=1,4-Dioxane) polar prop=efg volume
 ----------------------------------------------------------------------

 ---
 spe
 ---
 Structure from the checkpoint file:  "smiles_00085_conf_0.chk"
 Charge =  0 Multiplicity = 1

 SCF Done:  E(RM062X) =  -3277.63948913     A.U. after   12 cycles

  Exact polarizability:     212.815       0.000     188.743       0.005      -0.000      92.763
 Approx polarizability:     217.095       0.000     202.681       0.006      -0.000     115.735

 Normal termination of Gaussian 16 at Tue Sep 17 10:46:02 2024.
 Gaussian 16:  ES64L-G16RevC.02  7-Dec-2021

 ----------------------------------------------------------------------
 #p M062X/def2tzvp geom=check guess=read scf(xqc,tight) integral(grid=u
 ltrafine) scrf(SMD, solvent=1,4-Dioxane) nmr=giao
 ----------------------------------------------------------------------

 ---
 spe
 ---
 Structure from the checkpoint file:  "smiles_00085_conf_0.chk"
 Charge =  0 Multiplicity = 1

                         Standard orientation:
 ---------------------------------------------------------------------
 Center     Atomic      Atomic             Coordinates (Angstroms)
 Number     Number       Type             X           Y           Z
 ---------------------------------------------------------------------
      1          6           0        3.345913   -3.517982   -0.000014
      2          8           0        2.594418   -2.292976    0.000114
      3          6           0        1.266056   -2.448474    0.000176
      4          8           0        0.699653   -3.524405   -0.000011
      5          6           0        0.524538   -1.140022    0.000112
      6          6           0       -0.873875   -1.202242    0.000015
      7          6           0       -1.570300   -0.000000   -0.000034
      8         35           0       -3.470758   -0.000000   -0.000163
      9          6           0       -0.873875    1.202242    0.000012
     10          6           0        0.524538    1.140022    0.000109
     11          6           0        1.266055    2.448474    0.000171
     12          8           0        0.699653    3.524405   -0.000014
     13          8           0        2.594418    2.292976    0.000117
     14          6           0        3.345912    3.517982   -0.000004
     15          7           0        1.220651    0.000000    0.000154
     16          1           0        3.112999   -4.109529    0.888468
     17          1           0        3.112846   -4.109442   -0.888514
     18          1           0        4.392302   -3.216675   -0.000088
     19          1           0       -1.369618   -2.163903   -0.000015
     20          1           0       -1.369618    2.163903   -0.000020
     21          1           0        3.112882    4.109424   -0.888526
     22          1           0        4.392302    3.216675   -0.000032
     23          1           0        3.112963    4.109547    0.888457
 ---------------------------------------------------------------------

 SCF Done:  E(RM062X) =  -3277.63948913     A.U. after    1 cycles

      1  C    Isotropic =   129.9424   Anisotropy =    73.4078

      2  O    Isotropic =   130.8136   Anisotropy =   188.5051

      3  C    Isotropic =    -0.2498   Anisotropy =   103.5978

      4  O    Isotropic =  -133.4125   Anisotropy =   695.3698

      5  C    Isotropic =    13.2872   Anisotropy =   170.2687

      6  C    Isotropic =    30.2425   Anisotropy =   197.0661

      7  C    Isotropic =     7.9960   Anisotropy =   176.0070

      8  Br   Isotropic =  2021.1523   Anisotropy =  1292.5459

      9  C    Isotropic =    30.2425   Anisotropy =   197.0661

     10  C    Isotropic =    13.2872   Anisotropy =   170.2687

     11  C    Isotropic =    -0.2498   Anisotropy =   103.5978

     12  O    Isotropic =  -133.4125   Anisotropy =   695.3698

     13  O    Isotropic =   130.8136   Anisotropy =   188.5051

     14  C    Isotropic =   129.9424   Anisotropy =    73.4078

     15  N    Isotropic =  -141.0587   Anisotropy =   658.5399

     16  H    Isotropic =    27.8813   Anisotropy =     8.0978

     17  H    Isotropic =    27.8812   Anisotropy =     8.0972

     18  H    Isotropic =    27.8824   Anisotropy =     7.4892

     19  H    Isotropic =    22.4141   Anisotropy =    13.7230

     20  H    Isotropic =    22.4141   Anisotropy =    13.7230

     21  H    Isotropic =    27.8812   Anisotropy =     8.0973

     22  H    Isotropic =    27.8824   Anisotropy =     7.4892

     23  H    Isotropic =    27.8813   Anisotropy =     8.0977

 The electronic state is 1-A.
 Alpha  occ. eigenvalues -- -485.39358 -63.37830 -57.19781 -57.19539 -57.19525
 Alpha  occ. eigenvalues --  -19.68170 -19.68170 -19.62943 -19.62943 -14.78214
 Alpha  occ. eigenvalues --  -10.68796 -10.68796 -10.63559 -10.61605 -10.61602
 Alpha  occ. eigenvalues --  -10.59138 -10.59138 -10.58399 -10.58398  -9.04473
 Alpha  occ. eigenvalues --   -6.86902  -6.86002  -6.85957  -2.90280  -2.89959
 Alpha  occ. eigenvalues --   -2.89913  -2.89075  -2.89074  -1.24475  -1.24414
 Alpha  occ. eigenvalues --   -1.15077  -1.15071  -1.08927  -0.96495  -0.91474
 Alpha  occ. eigenvalues --   -0.86875  -0.83850  -0.83089  -0.75447  -0.75188
 Alpha  occ. eigenvalues --   -0.66947  -0.65403  -0.62586  -0.61927  -0.58719
 Alpha  occ. eigenvalues --   -0.58001  -0.57941  -0.57463  -0.56644  -0.55632
 Alpha  occ. eigenvalues --   -0.51622  -0.50541  -0.50340  -0.47929  -0.47063
 Alpha  occ. eigenvalues --   -0.46919  -0.46451  -0.43891  -0.43692  -0.41878
 Alpha  occ. eigenvalues --   -0.39798  -0.38554  -0.38551  -0.37341  -0.36545
 Alpha  occ. eigenvalues --   -0.34783  -0.34466  -0.33743
 Alpha virt. eigenvalues --   -0.04815  -0.04232   0.02202   0.04627   0.08000
 Alpha virt. eigenvalues --    0.08653   0.10285   0.10310   0.11465   0.11740
 Alpha virt. eigenvalues --    0.13118   0.13249   0.14560   0.14753   0.15636

 Mulliken charges:
               1
     1  C   -0.277224
     2  O   -0.238338
     3  C    0.345205
     4  O   -0.362475
     5  C    0.098258
     6  C   -0.153573
     7  C    0.048686
     8  Br  -0.058103
     9  C   -0.153573
    10  C    0.098258
    11  C    0.345205
    12  O   -0.362475
    13  O   -0.238338
    14  C   -0.277224
    15  N   -0.203646
    16  H    0.161874
    17  H    0.161873
    18  H    0.161456
    19  H    0.209476
    20  H    0.209476
    21  H    0.161873
    22  H    0.161456
    23  H    0.161874
 Sum of Mulliken charges =  -0.00000

 Dipole moment (field-independent basis, Debye):
    X=              2.2266    Y=              0.0000    Z=              0.0002  Tot=              2.2266
 Quadrupole moment (field-independent basis, Debye-Ang):
   XX=            -83.2787   YY=           -100.4253   ZZ=            -97.3240
   XY=              0.0000   XZ=             -0.0004   YZ=              0.0000

 Normal termination of Gaussian 16 at Tue Sep 17 11:04:17 2024.
