 Gaussian 16, Revision C.02,

 ----------------------------------------------------------------------
 #p B3LYP/6-31G(d,p) EmpiricalDispersion=GD3BJ opt freq scf(xqc,tight)
 integral(grid=ultrafine)
 ----------------------------------------------------------------------

 ----------------------------------
 opt-freq conformers_unique/conf_ab
 ----------------------------------
 Symbolic Z-matrix:
 Charge =  0 Multiplicity = 1

 SCF Done:  E(RB3LYP) =  -899.910063713     A.U. after   14 cycles
 SCF Done:  E(RB3LYP) =  -899.911594500     A.U. after   12 cycles
 SCF Done:  E(RB3LYP) =  -899.911651347     A.U. after   11 cycles
 SCF Done:  E(RB3LYP) =  -899.911675964     A.U. after   10 cycles
 SCF Done:  E(RB3LYP) =  -899.911675478     A.U. after    9 cycles
 SCF Done:  E(RB3LYP) =  -899.911679221     A.U. after    8 cycles
 Optimization completed.
    -- Stationary point found.
 Normal termination of Gaussian 16 at Tue Sep 17 09:55:34 2024.

 ----------------------------------------------------------------------
 #P Geom=AllCheck Guess=TCheck SCRF=Check GenChk RB3LYP/6-31G(d,p) Freq
 ----------------------------------------------------------------------

 Structure from the checkpoint file:  "smiles_00003_conf_1.chk"
 ----------------------------------
 opt-freq conformers_unique/conf_ab
 ----------------------------------
 Charge =  0 Multiplicity = 1

 SCF Done:  E(RB3LYP) =  -899.911679221     A.U. after    1 cycles
 ******    1 imaginary frequencies (negative Signs) ******

                      1                      2                      3
                      A                      A                      A
 Frequencies --    -23.0321                52.8819                66.9879
 Red. masses --      1.0969                 6.3863                 3.5183
 Frc consts  --      0.0003                 0.0105                 0.0093
 IR Inten    --      1.4239                 4.1203                 2.4772

                      4                      5                      6
                      A                      A                      A
 Frequencies --    143.5390               160.0899               273.3745
 Red. masses --      6.1638                 5.7009                 9.0833
 Frc consts  --      0.0748                 0.0861                 0.4000
 IR Inten    --      4.0885                 0.1473                 2.1696

                      7                      8                      9
                      A                      A                      A
 Frequencies --    296.8653               343.4534               383.0828
 Red. masses --      5.2581                 5.5887                 4.8760
 Frc consts  --      0.2730                 0.3884                 0.4216
 IR Inten    --      2.0852                 0.0028                 0.2793

                     10                     11                     12
                      A                      A                      A
 Frequencies --    421.1257               451.7196               514.7421
 Red. masses --      3.1781                 5.2640                 2.2916
 Frc consts  --      0.3321                 0.6329                 0.3577
 IR Inten    --      0.0512                25.1880                36.2089

                     13                     14                     15
                      A                      A                      A
 Frequencies --    536.0692               584.8215               623.0809
 Red. masses --      1.4970                 4.4779                 2.1102
 Frc consts  --      0.2535                 0.9023                 0.4827
 IR Inten    --     40.9002                 0.8959                 5.3229

                     16                     17                     18
                      A                      A                      A
 Frequencies --    648.4382               712.0438               717.7549
 Red. masses --      6.9569                 3.8525                 6.2469
 Frc consts  --      1.7235                 1.1508                 1.8961
 IR Inten    --      0.2806                 0.5727                24.7748

                     19                     20                     21
                      A                      A                      A
 Frequencies --    819.4298               854.2239               857.1817
 Red. masses --      1.3903                 1.4135                 4.8896
 Frc consts  --      0.5500                 0.6077                 2.1168
 IR Inten    --     21.5634                32.9681                 2.6392

                     22                     23                     24
                      A                      A                      A
 Frequencies --    939.6211               969.9348               984.6990
 Red. masses --      1.3010                 5.8803                 1.2924
 Frc consts  --      0.6767                 3.2594                 0.7383
 IR Inten    --      0.0034                 4.4459                 1.0272

                     25                     26                     27
                      A                      A                      A
 Frequencies --   1019.7590              1030.9842              1055.5528
 Red. masses --      1.6726                 3.2676                 1.6877
 Frc consts  --      1.0248                 2.0464                 1.1079
 IR Inten    --     12.0039                25.7298                 9.7233

                     28                     29                     30
                      A                      A                      A
 Frequencies --   1114.8751              1143.9153              1206.3003
 Red. masses --      2.7607                 1.3087                 1.1342
 Frc consts  --      2.0218                 1.0089                 0.9724
 IR Inten    --     50.9023                15.4455                 9.5382

                     31                     32                     33
                      A                      A                      A
 Frequencies --   1251.4849              1282.6041              1327.8143
 Red. masses --      3.1284                 2.2710                 1.3658
 Frc consts  --      2.8869                 2.2012                 1.4188
 IR Inten    --     54.3432                57.4192                 6.5079

                     34                     35                     36
                      A                      A                      A
 Frequencies --   1353.5365              1413.1460              1440.2235
 Red. masses --      6.2576                 1.2508                 3.0008
 Frc consts  --      6.7546                 1.4716                 3.6673
 IR Inten    --     92.6413                28.6587                72.2344

                     37                     38                     39
                      A                      A                      A
 Frequencies --   1482.6744              1503.1913              1536.6333
 Red. masses --      1.0455                 1.0865                 2.3017
 Frc consts  --      1.3542                 1.4464                 3.2021
 IR Inten    --      5.6875                 8.2875                80.1838

                     40                     41                     42
                      A                      A                      A
 Frequencies --   1560.3157              1643.5599              1658.3599
 Red. masses --      2.3375                 4.8925                 5.8753
 Frc consts  --      3.3529                 7.7867                 9.5199
 IR Inten    --    468.7901                36.7130                17.0770

                     43                     44                     45
                      A                      A                      A
 Frequencies --   1790.8005              3061.7143              3140.2998
 Red. masses --      8.9927                 1.0360                 1.1029
 Frc consts  --     16.9917                 5.7216                 6.4082
 IR Inten    --    205.1551                 8.2791                12.5937

                     46                     47                     48
                      A                      A                      A
 Frequencies --   3146.4131              3174.5866              3219.3436
 Red. masses --      1.1020                 1.0897                 1.0916
 Frc consts  --      6.4278                 6.4703                 6.6656
 IR Inten    --      7.9487                14.7954                 2.1835

                     49                     50                     51
                      A                      A                      A
 Frequencies --   3223.4379              3271.8824              3641.1732
 Red. masses --      1.0936                 1.0925                 1.0769
 Frc consts  --      6.6948                 6.8907                 8.4125
 IR Inten    --      2.6262                 8.7661                18.3232

 - Thermochemistry -
 -------------------
 Temperature   298.150 Kelvin.  Pressure   1.00000 Atm.
 Atom     1 has atomic number  6 and mass  12.00000

 Molecular mass:   169.02944 amu.
 Principal axes and moments of inertia in atomic units:
                           1         2         3
     Eigenvalues --   507.935024512.207725008.96770
           X            0.99998   0.00689   0.00012
           Y           -0.00689   0.99998  -0.00001
           Z           -0.00012   0.00001   1.00000
 This molecule is an asymmetric top.
 Rotational symmetry number  1.
 Warning -- assumption of classical behavior for rotation
           may cause significant error
 Rotational temperatures (Kelvin)      0.17052     0.01920     0.01729
 Rotational constants (GHZ):           3.55309     0.39997     0.36030
    1 imaginary frequencies ignored.
 Zero-point vibrational energy     383102.5 (Joules/Mol)
                                   91.56370 (Kcal/Mol)
 Warning -- explicit consideration of  13 degrees of freedom as
           vibrations may cause significant error
 Vibrational temperatures:     76.09    96.38   206.52   230.33   393.32
          (Kelvin)            427.12   494.15   551.17   605.91   649.92
                              740.60   771.28   841.43   896.47   932.96
                             1024.47  1032.69  1178.98  1229.04  1233.29
                             1351.91  1395.52  1416.76  1467.21  1483.36
                             1518.70  1604.06  1645.84  1735.60  1800.61
                             1845.38  1910.43  1947.44  2033.20  2072.16
                             2133.24  2162.76  2210.87  2244.95  2364.72
                             2386.01  2576.56  4405.12  4518.19  4526.99
                             4567.52  4631.92  4637.81  4707.51  5238.84

 Zero-point correction=                           0.145916 (Hartree/Particle)
 Thermal correction to Energy=                    0.155428
 Thermal correction to Enthalpy=                  0.156372
 Thermal correction to Gibbs Free Energy=         0.109931
 Sum of electronic and zero-point Energies=           -899.765763
 Sum of electronic and thermal Energies=              -899.756252
 Sum of electronic and thermal Enthalpies=            -899.755307
 Sum of electronic and thermal Free Energies=         -899.801748

                     E (Thermal)             CV                S
                      KCal/Mol        Cal/Mol-Kelvin    Cal/Mol-Kelvin
 Total                   97.532             35.866             97.743
 Electronic               0.000              0.000              0.000
 Translational            0.889              2.981             41.283
 Rotational               0.889              2.981             30.819
 Vibrational             95.755             29.904             25.642
 Vibration     1          0.596              1.976              4.707
 Vibration     2          0.598              1.970              4.240
 Vibration     3          0.616              1.910              2.756
 Vibration     4          0.622              1.891              2.549
 Vibration     5          0.676              1.722              1.575
 Vibration     6          0.691              1.680              1.435
 Vibration     7          0.722              1.589              1.196
 Vibration     8          0.752              1.506              1.027
 Vibration     9          0.784              1.424              0.888
 Vibration    10          0.810              1.357              0.791
 Vibration    11          0.870              1.217              0.622
 Vibration    12          0.891              1.170              0.574
 Vibration    13          0.942              1.064              0.477

                           ! Non-Optimized Parameters !
 Normal termination of Gaussian 16 at Tue Sep 17 09:56:45 2024.

 ----------------------------------------------------------------------
 #p M062X/def2tzvp geom=check guess=read scf(xqc,tight) integral(grid=u
 ltrafine) scrf(SMD, solvent=1,4-Dioxane) polar prop=efg volume
 ----------------------------------------------------------------------

 ---
 spe
 ---
 Structure from the checkpoint file:  "smiles_00003_conf_1.chk"
 Charge =  0 Multiplicity = 1

 SCF Done:  E(RM062X) =  -899.858191981     A.U. after   12 cycles

  Exact polarizability:     203.467       0.230     131.139       0.043      -0.001      74.238
 Approx polarizability:     190.452      -1.245     158.360       0.001       0.003      91.428

 Normal termination of Gaussian 16 at Tue Sep 17 10:22:59 2024.
 Gaussian 16:  ES64L-G16RevC.02  7-Dec-2021

 ----------------------------------------------------------------------
 #p M062X/def2tzvp geom=check guess=read scf(xqc,tight) integral(grid=u
 ltrafine) scrf(SMD, solvent=1,4-Dioxane) nmr=giao
 ----------------------------------------------------------------------

 ---
 spe
 ---
 Structure from the checkpoint file:  "smiles_00003_conf_1.chk"
 Charge =  0 Multiplicity = 1

                         Standard orientation:
 ---------------------------------------------------------------------
 Center     Atomic      Atomic             Coordinates (Angstroms)
 Number     Number       Type             X           Y           Z
 ---------------------------------------------------------------------
      1          6           0        4.403607    0.396849    0.006847
      2          6           0        3.028829   -0.251348   -0.002884
      3          8           0        2.894426   -1.466054   -0.003171
      4          7           0        1.978561    0.640498   -0.003752
      5          6           0        0.596635    0.372027   -0.002349
      6          6           0        0.065317   -0.926043   -0.001107
      7          6           0       -1.316012   -1.106174    0.000278
      8          6           0       -2.166361   -0.004219    0.000400
      9         17           0       -3.908423   -0.245091    0.002153
     10          6           0       -1.652411    1.290242   -0.000902
     11          6           0       -0.274184    1.471444   -0.002311
     12          1           0        4.976617    0.006202   -0.837356
     13          1           0        4.386587    1.488447   -0.048673
     14          1           0        4.923458    0.097165    0.920679
     15          1           0        2.223774    1.619079   -0.003203
     16          1           0        0.735535   -1.772522   -0.001326
     17          1           0       -1.729740   -2.107904    0.001244
     18          1           0       -2.320148    2.143555   -0.000816
     19          1           0        0.129254    2.480789   -0.003354
 ---------------------------------------------------------------------

 SCF Done:  E(RM062X) =  -899.858191981     A.U. after    1 cycles

      1  C    Isotropic =   159.1658   Anisotropy =    51.6432

      2  C    Isotropic =    -3.0362   Anisotropy =   135.1605

      3  O    Isotropic =  -157.8518   Anisotropy =   747.5559

      4  N    Isotropic =    91.2955   Anisotropy =   140.5408

      5  C    Isotropic =    25.2487   Anisotropy =   184.4983

      6  C    Isotropic =    46.3254   Anisotropy =   200.2724

      7  C    Isotropic =    33.2062   Anisotropy =   188.1638

      8  C    Isotropic =    29.6087   Anisotropy =   134.5926

      9  Cl   Isotropic =   691.6468   Anisotropy =   511.1732

     10  C    Isotropic =    35.3228   Anisotropy =   186.0109

     11  C    Isotropic =    48.3836   Anisotropy =   166.6430

     12  H    Isotropic =    29.6547   Anisotropy =     6.6781

     13  H    Isotropic =    30.1251   Anisotropy =     6.0155

     14  H    Isotropic =    29.6035   Anisotropy =     6.5796

     15  H    Isotropic =    24.3050   Anisotropy =     8.5043

     16  H    Isotropic =    22.0934   Anisotropy =    10.9536

     17  H    Isotropic =    23.7018   Anisotropy =     8.7794

     18  H    Isotropic =    23.8426   Anisotropy =     8.3984

     19  H    Isotropic =    24.4815   Anisotropy =     7.4179

 The electronic state is 1-A.
 Alpha  occ. eigenvalues -- -102.64415 -19.60298 -14.79452 -10.65824 -10.60340
 Alpha  occ. eigenvalues --  -10.60102 -10.55880 -10.55727 -10.55555 -10.54795
 Alpha  occ. eigenvalues --  -10.54457  -9.80658  -7.52854  -7.52345  -7.52337
 Alpha  occ. eigenvalues --   -1.17016  -1.05982  -0.99036  -0.93219  -0.85851
 Alpha  occ. eigenvalues --   -0.85559  -0.80978  -0.72526  -0.70145  -0.65921
 Alpha  occ. eigenvalues --   -0.62295  -0.57120  -0.55746  -0.53621  -0.52961
 Alpha  occ. eigenvalues --   -0.51851  -0.49956  -0.48951  -0.48098  -0.46994
 Alpha  occ. eigenvalues --   -0.44989  -0.44148  -0.42477  -0.41208  -0.37754
 Alpha  occ. eigenvalues --   -0.36543  -0.33894  -0.32234  -0.27670
 Alpha virt. eigenvalues --    0.00416   0.00819   0.05476   0.06937   0.07340
 Alpha virt. eigenvalues --    0.09705   0.11464   0.12355   0.13219   0.13798
 Alpha virt. eigenvalues --    0.15762   0.15987   0.16087   0.17988   0.19094

 Mulliken charges:
               1
     1  C   -0.478935
     2  C    0.404039
     3  O   -0.420049
     4  N   -0.371986
     5  C    0.258259
     6  C   -0.230949
     7  C   -0.173151
     8  C    0.059298
     9  Cl  -0.106493
    10  C   -0.182397
    11  C   -0.241143
    12  H    0.174291
    13  H    0.140451
    14  H    0.175130
    15  H    0.262821
    16  H    0.210639
    17  H    0.175092
    18  H    0.174086
    19  H    0.170997
 Sum of Mulliken charges =  -0.00000

 Dipole moment (field-independent basis, Debye):
    X=              2.7823    Y=              4.3684    Z=              0.0140  Tot=              5.1793
 Quadrupole moment (field-independent basis, Debye-Ang):
   XX=            -69.9963   YY=            -66.6365   ZZ=            -74.3157
   XY=             10.9401   XZ=              0.0647   YZ=             -0.0121

 Normal termination of Gaussian 16 at Tue Sep 17 10:32:23 2024.
