 Gaussian 16, Revision C.02,

 ----------------------------------------------------------------------
 #p B3LYP/6-31G(d,p) EmpiricalDispersion=GD3BJ opt freq scf(xqc,tight)
 integral(grid=ultrafine)
 ----------------------------------------------------------------------

 ----------------------------------
 opt-freq conformers_unique/conf_aa
 ----------------------------------
 Symbolic Z-matrix:
 Charge =  0 Multiplicity = 1

 SCF Done:  E(RB3LYP) =  -2973.08146426     A.U. after   14 cycles
 SCF Done:  E(RB3LYP) =  -2973.08289481     A.U. after   12 cycles
 SCF Done:  E(RB3LYP) =  -2973.08294682     A.U. after    9 cycles
 SCF Done:  E(RB3LYP) =  -2973.08295018     A.U. after    9 cycles
 Optimization completed.
    -- Stationary point found.
 Normal termination of Gaussian 16 at Tue Sep 17 09:43:30 2024.

 ----------------------------------------------------------------------
 #P Geom=AllCheck Guess=TCheck SCRF=Check GenChk RB3LYP/6-31G(d,p) Freq
 ----------------------------------------------------------------------

 Structure from the checkpoint file:  "smiles_00029_conf_0.chk"
 ----------------------------------
 opt-freq conformers_unique/conf_aa
 ----------------------------------
 Charge =  0 Multiplicity = 1

 SCF Done:  E(RB3LYP) =  -2973.08295018     A.U. after    1 cycles

                      1                      2                      3
                      A                      A                      A
 Frequencies --    111.1719               173.0616               174.8117
 Red. masses --      4.6303                 8.6784                 4.4066
 Frc consts  --      0.0337                 0.1531                 0.0793
 IR Inten    --      0.0814                 0.7163                 0.0735

                      4                      5                      6
                      A                      A                      A
 Frequencies --    231.4175               300.3618               415.5997
 Red. masses --      4.2193                12.1159                 3.5435
 Frc consts  --      0.1331                 0.6440                 0.3606
 IR Inten    --      0.0293                 1.4465                 0.5171

                      7                      8                      9
                      A                      A                      A
 Frequencies --    418.0178               479.3251               528.7897
 Red. masses --      4.7297                 3.7920                 8.7219
 Frc consts  --      0.4869                 0.5133                 1.4369
 IR Inten    --      0.0960                 1.2718                 2.8826

                     10                     11                     12
                      A                      A                      A
 Frequencies --    540.0071               561.0443               651.0915
 Red. masses --      7.3000                 3.6243                 3.5589
 Frc consts  --      1.2542                 0.6722                 0.8889
 IR Inten    --      0.3556                 9.6136                 4.0077

                     13                     14                     15
                      A                      A                      A
 Frequencies --    679.4804               771.0845               804.0729
 Red. masses --      6.8829                 1.3451                 2.5201
 Frc consts  --      1.8723                 0.4712                 0.9600
 IR Inten    --     12.6781                27.6585                13.5068

                     16                     17                     18
                      A                      A                      A
 Frequencies --    808.3448               850.6307               885.8442
 Red. masses --      6.0280                 5.4554                 1.4370
 Frc consts  --      2.3207                 2.3257                 0.6644
 IR Inten    --      5.5645                 8.4691                 3.8958

                     19                     20                     21
                      A                      A                      A
 Frequencies --    926.3070               961.9742               969.6140
 Red. masses --      1.5960                 1.4117                 6.6427
 Frc consts  --      0.8068                 0.7697                 3.6795
 IR Inten    --     10.6733                 0.2382                50.4680

                     22                     23                     24
                      A                      A                      A
 Frequencies --    978.0582              1008.3557              1053.0793
 Red. masses --      1.3940                 1.3000                 2.3421
 Frc consts  --      0.7856                 0.7788                 1.5303
 IR Inten    --      1.5799                 0.0148                 3.5291

                     25                     26                     27
                      A                      A                      A
 Frequencies --   1145.3706              1168.9422              1194.7852
 Red. masses --      3.2743                 1.4947                 1.2530
 Frc consts  --      2.5308                 1.2034                 1.0539
 IR Inten    --      8.1232                 2.1920                 2.4332

                     28                     29                     30
                      A                      A                      A
 Frequencies --   1247.8198              1265.4816              1286.4605
 Red. masses --      1.9486                 2.0900                 1.6461
 Frc consts  --      1.7876                 1.9720                 1.6050
 IR Inten    --     29.8191                14.6162                12.4216

                     31                     32                     33
                      A                      A                      A
 Frequencies --   1369.7799              1411.7955              1420.6742
 Red. masses --      3.9348                 3.2207                 2.1605
 Frc consts  --      4.3499                 3.7822                 2.5692
 IR Inten    --      2.7109                10.8724                20.5718

                     34                     35                     36
                      A                      A                      A
 Frequencies --   1454.2686              1490.8263              1539.9708
 Red. masses --      2.2894                 2.3963                 3.1245
 Frc consts  --      2.8528                 3.1379                 4.3657
 IR Inten    --      0.5883                 2.4014                 7.5471

                     37                     38                     39
                      A                      A                      A
 Frequencies --   1612.1229              1628.3737              1679.0881
 Red. masses --      6.9391                 5.7406                 5.9770
 Frc consts  --     10.6255                 8.9684                 9.9285
 IR Inten    --      6.2135                25.4475                12.5564

                     40                     41                     42
                      A                      A                      A
 Frequencies --   3151.0529              3185.5474              3195.3532
 Red. masses --      1.0901                 1.0867                 1.0900
 Frc consts  --      6.3771                 6.4971                 6.5569
 IR Inten    --     20.1823                 1.0619                12.5890

                     43                     44                     45
                      A                      A                      A
 Frequencies --   3200.4840              3209.9853              3224.8700
 Red. masses --      1.0921                 1.0954                 1.0941
 Frc consts  --      6.5910                 6.6503                 6.7042
 IR Inten    --      6.7222                18.8624                 4.3512

 - Thermochemistry -
 -------------------
 Temperature   298.150 Kelvin.  Pressure   1.00000 Atm.
 Atom     1 has atomic number 35 and mass  78.91834

 Molecular mass:   206.96836 amu.
 Principal axes and moments of inertia in atomic units:
                           1         2         3
     Eigenvalues --  1272.895962964.492554237.38850
           X            0.99925   0.03885   0.00004
           Y           -0.03885   0.99925  -0.00004
           Z           -0.00004   0.00003   1.00000
 This molecule is an asymmetric top.
 Rotational symmetry number  1.
 Warning -- assumption of classical behavior for rotation
           may cause significant error
 Rotational temperatures (Kelvin)      0.06804     0.02922     0.02044
 Rotational constants (GHZ):           1.41782     0.60879     0.42591
 Zero-point vibrational energy     331153.8 (Joules/Mol)
                                   79.14767 (Kcal/Mol)
 Warning -- explicit consideration of  11 degrees of freedom as
           vibrations may cause significant error
 Vibrational temperatures:    159.95   249.00   251.52   332.96   432.15
          (Kelvin)            597.96   601.43   689.64   760.81   776.95
                              807.22   936.78   977.62  1109.42  1156.88
                             1163.03  1223.87  1274.53  1332.75  1384.07
                             1395.06  1407.21  1450.80  1515.15  1647.93
                             1681.85  1719.03  1795.33  1820.75  1850.93
                             1970.81  2031.26  2044.03  2092.37  2144.97
                             2215.67  2319.49  2342.87  2415.83  4533.66
                             4583.29  4597.40  4604.78  4618.45  4639.87

 Zero-point correction=                           0.126130 (Hartree/Particle)
 Thermal correction to Energy=                    0.134221
 Thermal correction to Enthalpy=                  0.135165
 Thermal correction to Gibbs Free Energy=         0.091855
 Sum of electronic and zero-point Energies=          -2972.956820
 Sum of electronic and thermal Energies=             -2972.948730
 Sum of electronic and thermal Enthalpies=           -2972.947785
 Sum of electronic and thermal Free Energies=        -2972.991096

                     E (Thermal)             CV                S
                      KCal/Mol        Cal/Mol-Kelvin    Cal/Mol-Kelvin
 Total                   84.225             31.859             91.154
 Electronic               0.000              0.000              0.000
 Translational            0.889              2.981             41.886
 Rotational               0.889              2.981             31.148
 Vibrational             82.447             25.898             18.120
 Vibration     1          0.607              1.940              3.248
 Vibration     2          0.627              1.876              2.402
 Vibration     3          0.627              1.873              2.383
 Vibration     4          0.653              1.793              1.868
 Vibration     5          0.693              1.673              1.415
 Vibration     6          0.779              1.436              0.907
 Vibration     7          0.781              1.431              0.899
 Vibration     8          0.836              1.296              0.712
 Vibration     9          0.884              1.186              0.590
 Vibration    10          0.895              1.162              0.565
 Vibration    11          0.917              1.116              0.522

 Optimization completed.
    -- Stationary point found.
 Normal termination of Gaussian 16 at Tue Sep 17 09:44:45 2024.

 ----------------------------------------------------------------------
 #p M062X/def2tzvp geom=check guess=read scf(xqc,tight) integral(grid=u
 ltrafine) scrf(SMD, solvent=1,4-Dioxane) polar prop=efg volume
 ----------------------------------------------------------------------

 ---
 spe
 ---
 Structure from the checkpoint file:  "smiles_00029_conf_0.chk"
 Charge =  0 Multiplicity = 1

 SCF Done:  E(RM062X) =  -2975.50491034     A.U. after   12 cycles

  Exact polarizability:     200.252       9.758     182.207      -0.005       0.003      75.952
 Approx polarizability:     215.869       7.183     214.100      -0.005       0.004      96.952

 Normal termination of Gaussian 16 at Tue Sep 17 10:22:09 2024.
 Gaussian 16:  ES64L-G16RevC.02  7-Dec-2021

 ----------------------------------------------------------------------
 #p M062X/def2tzvp geom=check guess=read scf(xqc,tight) integral(grid=u
 ltrafine) scrf(SMD, solvent=1,4-Dioxane) nmr=giao
 ----------------------------------------------------------------------

 ---
 spe
 ---
 Structure from the checkpoint file:  "smiles_00029_conf_0.chk"
 Charge =  0 Multiplicity = 1

                         Standard orientation:
 ---------------------------------------------------------------------
 Center     Atomic      Atomic             Coordinates (Angstroms)
 Number     Number       Type             X           Y           Z
 ---------------------------------------------------------------------
      1         35           0        2.311363   -0.519147   -0.000116
      2          6           0        0.689386    0.489324   -0.000003
      3          6           0        0.765568    1.862858    0.000029
      4          7           0       -0.330354    2.664915    0.000104
      5          6           0       -1.513131    2.087467    0.000152
      6          6           0       -1.717494    0.682441    0.000097
      7          6           0       -3.012653    0.106840    0.000117
      8          6           0       -3.166624   -1.259534    0.000081
      9          6           0       -2.028237   -2.101505    0.000014
     10          6           0       -0.756816   -1.574419   -0.000015
     11          6           0       -0.568430   -0.169676    0.000024
     12          1           0        1.731076    2.358746    0.000004
     13          1           0       -2.381731    2.745346    0.000172
     14          1           0       -3.876701    0.764966    0.000171
     15          1           0       -4.159141   -1.698273    0.000106
     16          1           0       -2.162088   -3.178692   -0.000016
     17          1           0        0.113943   -2.219119   -0.000071
 ---------------------------------------------------------------------

 SCF Done:  E(RM062X) =  -2975.50491034     A.U. after    1 cycles

      1  Br   Isotropic =  2231.7074   Anisotropy =   989.3502

      2  C    Isotropic =    31.2105   Anisotropy =   118.5541

      3  C    Isotropic =    16.7211   Anisotropy =   164.5494

      4  N    Isotropic =  -134.9222   Anisotropy =   621.8007

      5  C    Isotropic =     8.2136   Anisotropy =   188.1329

      6  C    Isotropic =    33.4872   Anisotropy =   231.8975

      7  C    Isotropic =    34.7428   Anisotropy =   205.5947

      8  C    Isotropic =    34.8858   Anisotropy =   215.2147

      9  C    Isotropic =    31.1941   Anisotropy =   224.5109

     10  C    Isotropic =    38.8925   Anisotropy =   202.3380

     11  C    Isotropic =    26.8748   Anisotropy =   241.7663

     12  H    Isotropic =    22.2408   Anisotropy =    12.8481

     13  H    Isotropic =    21.6476   Anisotropy =     8.5959

     14  H    Isotropic =    22.8498   Anisotropy =     7.4187

     15  H    Isotropic =    23.1933   Anisotropy =     6.6279

     16  H    Isotropic =    23.0801   Anisotropy =     7.6872

     17  H    Isotropic =    22.5922   Anisotropy =    14.5269

 The electronic state is 1-A.
 Alpha  occ. eigenvalues -- -485.38229 -63.36700 -57.18648 -57.18409 -57.18402
 Alpha  occ. eigenvalues --  -14.76168 -10.61028 -10.59000 -10.58622 -10.58058
 Alpha  occ. eigenvalues --  -10.57043 -10.56172 -10.56108 -10.55801 -10.55775
 Alpha  occ. eigenvalues --   -9.03337  -6.85750  -6.84867  -6.84844  -2.89126
 Alpha  occ. eigenvalues --   -2.88807  -2.88781  -2.87958  -2.87958  -1.06607
 Alpha  occ. eigenvalues --   -0.97912  -0.93287  -0.87696  -0.86067  -0.82781
 Alpha  occ. eigenvalues --   -0.73867  -0.72721  -0.68612  -0.61483  -0.60644
 Alpha  occ. eigenvalues --   -0.57743  -0.53360  -0.52070  -0.50541  -0.50312
 Alpha  occ. eigenvalues --   -0.48833  -0.46455  -0.43714  -0.43390  -0.40845
 Alpha  occ. eigenvalues --   -0.40605  -0.36296  -0.34086  -0.33531  -0.32775
 Alpha  occ. eigenvalues --   -0.28426
 Alpha virt. eigenvalues --   -0.03836  -0.01095   0.03530   0.03860   0.08517
 Alpha virt. eigenvalues --    0.10076   0.10933   0.11136   0.12609   0.13198
 Alpha virt. eigenvalues --    0.13979   0.15516   0.17489   0.17563   0.18831

 Mulliken charges:
               1
     1  Br  -0.095534
     2  C    0.008579
     3  C   -0.069731
     4  N   -0.242106
     5  C   -0.085393
     6  C    0.077843
     7  C   -0.186950
     8  C   -0.155515
     9  C   -0.144300
    10  C   -0.216565
    11  C    0.099550
    12  H    0.173598
    13  H    0.159222
    14  H    0.164804
    15  H    0.168460
    16  H    0.169775
    17  H    0.174263
 Sum of Mulliken charges =  -0.00000

 Dipole moment (field-independent basis, Debye):
    X=             -2.7414    Y=             -2.1540    Z=              0.0000  Tot=              3.4864
 Quadrupole moment (field-independent basis, Debye-Ang):
   XX=            -64.4443   YY=            -76.2746   ZZ=            -80.0360
   XY=              1.5427   XZ=             -0.0005   YZ=              0.0000

 Normal termination of Gaussian 16 at Tue Sep 17 10:35:14 2024.
