 Gaussian 16, Revision C.02,

 ----------------------------------------------------------------------
 #p B3LYP/6-31G(d,p) EmpiricalDispersion=GD3BJ opt freq scf(xqc,tight)
 integral(grid=ultrafine)
 ----------------------------------------------------------------------

 ----------------------------------
 opt-freq conformers_unique/conf_ah
 ----------------------------------
 Symbolic Z-matrix:
 Charge =  0 Multiplicity = 1

 SCF Done:  E(RB3LYP) =  -3157.29587466     A.U. after   14 cycles
 SCF Done:  E(RB3LYP) =  -3157.29845659     A.U. after   12 cycles
 SCF Done:  E(RB3LYP) =  -3157.29878555     A.U. after   11 cycles
 SCF Done:  E(RB3LYP) =  -3157.29907878     A.U. after   11 cycles
 SCF Done:  E(RB3LYP) =  -3157.29904259     A.U. after   11 cycles
 SCF Done:  E(RB3LYP) =  -3157.29989012     A.U. after   11 cycles
 SCF Done:  E(RB3LYP) =  -3157.29917658     A.U. after   11 cycles
 SCF Done:  E(RB3LYP) =  -3157.29777554     A.U. after   14 cycles
 SCF Done:  E(RB3LYP) =  -3157.29786687     A.U. after   12 cycles
 SCF Done:  E(RB3LYP) =  -3157.29998391     A.U. after   10 cycles
 SCF Done:  E(RB3LYP) =  -3157.30064570     A.U. after   10 cycles
 SCF Done:  E(RB3LYP) =  -3157.30071241     A.U. after   10 cycles
 SCF Done:  E(RB3LYP) =  -3157.30072719     A.U. after    9 cycles
 SCF Done:  E(RB3LYP) =  -3157.30073176     A.U. after    8 cycles
 SCF Done:  E(RB3LYP) =  -3157.30073196     A.U. after    7 cycles
 SCF Done:  E(RB3LYP) =  -3157.30073199     A.U. after    6 cycles
 SCF Done:  E(RB3LYP) =  -3157.30073201     A.U. after    6 cycles
 SCF Done:  E(RB3LYP) =  -3157.30073202     A.U. after    6 cycles
 Optimization completed.
    -- Stationary point found.
 Normal termination of Gaussian 16 at Tue Sep 17 09:59:44 2024.

 ----------------------------------------------------------------------
 #P Geom=AllCheck Guess=TCheck SCRF=Check GenChk RB3LYP/6-31G(d,p) Freq
 ----------------------------------------------------------------------

 Structure from the checkpoint file:  "smiles_00105_conf_7.chk"
 ----------------------------------
 opt-freq conformers_unique/conf_ah
 ----------------------------------
 Charge =  0 Multiplicity = 1

 SCF Done:  E(RB3LYP) =  -3157.30073202     A.U. after    1 cycles

 The electronic state is 1-A.
 Alpha  occ. eigenvalues -- -482.90715 -61.86794 -56.38778 -56.38404 -56.38391
 Alpha  occ. eigenvalues --  -10.23416 -10.20029 -10.19994 -10.19487 -10.19222
 Alpha  occ. eigenvalues --  -10.19217 -10.19134 -10.18397 -10.18376 -10.17636
 Alpha  occ. eigenvalues --  -10.17628 -10.17520 -10.17491 -10.17067 -10.17059
 Alpha  occ. eigenvalues --   -8.57715  -6.53014  -6.51819  -6.51770  -2.64588
 Alpha  occ. eigenvalues --   -2.64254  -2.64217  -2.63263  -2.63262  -0.87475
 Alpha  occ. eigenvalues --   -0.81901  -0.81354  -0.77925  -0.77192  -0.72437
 Alpha  occ. eigenvalues --   -0.70525  -0.68389  -0.68268  -0.68068  -0.63110
 Alpha  occ. eigenvalues --   -0.60658  -0.59682  -0.55041  -0.53926  -0.49335
 Alpha  occ. eigenvalues --   -0.48390  -0.45428  -0.44983  -0.43731  -0.43507
 Alpha  occ. eigenvalues --   -0.43235  -0.42901  -0.41343  -0.40234  -0.40208
 Alpha  occ. eigenvalues --   -0.39097  -0.38542  -0.38104  -0.37127  -0.36747
 Alpha  occ. eigenvalues --   -0.36069  -0.36024  -0.34397  -0.34208  -0.33988
 Alpha  occ. eigenvalues --   -0.33819  -0.33447  -0.32540  -0.31723  -0.31025
 Alpha  occ. eigenvalues --   -0.29470  -0.27361  -0.24003  -0.22673
 Alpha virt. eigenvalues --   -0.00404  -0.00065   0.01608   0.08601   0.09936
 Alpha virt. eigenvalues --    0.10136   0.11807   0.12517   0.13421   0.14095
 Alpha virt. eigenvalues --    0.14525   0.14974   0.15424   0.15755   0.15982

 Mulliken charges:
               1
     1  C   -0.303410
     2  C   -0.129106
     3  C   -0.303291
     4  C    0.154482
     5  C   -0.169519
     6  C    0.133770
     7  C   -0.122527
     8  C   -0.318977
     9  C   -0.302243
    10  C   -0.056807
    11  Br  -0.142482
    12  C    0.139167
    13  C   -0.123376
    14  C   -0.302270
    15  C   -0.318426
    16  C   -0.187422
    17  H    0.107712
    18  H    0.100000
    19  H    0.102866
    20  H    0.087832
    21  H    0.102049
    22  H    0.100080
    23  H    0.107919
    24  H    0.077662
    25  H    0.113988
    26  H    0.108199
    27  H    0.101905
    28  H    0.102104
    29  H    0.118632
    30  H    0.099310
    31  H    0.100857
    32  H    0.113999
    33  H    0.100935
    34  H    0.118549
    35  H    0.099284
    36  H    0.107964
    37  H    0.102753
    38  H    0.101799
    39  H    0.076041
 Sum of Mulliken charges =  -0.00000

 Dipole moment (field-independent basis, Debye):
    X=             -1.4738    Y=             -0.3484    Z=             -0.0077  Tot=              1.5145
 Quadrupole moment (field-independent basis, Debye-Ang):
   XX=           -109.8427   YY=           -106.6784   ZZ=           -114.3792
   XY=             -0.5445   XZ=             -0.1453   YZ=              0.8074

  Exact polarizability:     212.667      -0.207     197.133      -0.127       1.515     122.811
 Approx polarizability:     314.886       6.213     285.460      -0.467       5.218     182.825

                      1                      2                      3
                      A                      A                      A
 Frequencies --     28.9024                42.2448                79.7654
 Red. masses --      2.8174                 3.7020                 2.9283
 Frc consts  --      0.0014                 0.0039                 0.0110
 IR Inten    --      0.0024                 0.0638                 0.4245

                      4                      5                      6
                      A                      A                      A
 Frequencies --     86.3265               100.5418               133.1457
 Red. masses --      2.6009                 3.4019                 2.9898
 Frc consts  --      0.0114                 0.0203                 0.0312
 IR Inten    --      0.0160                 0.0071                 0.0949

                      7                      8                      9
                      A                      A                      A
 Frequencies --    146.0165               162.0087               175.9051
 Red. masses --      3.2900                 3.1768                 5.8210
 Frc consts  --      0.0413                 0.0491                 0.1061
 IR Inten    --      0.0609                 0.3059                 0.2600

                     10                     11                     12
                      A                      A                      A
 Frequencies --    195.5855               229.8867               238.3329
 Red. masses --      3.2709                 3.7777                 1.0971
 Frc consts  --      0.0737                 0.1176                 0.0367
 IR Inten    --      0.0636                 0.7704                 0.0172

                     13                     14                     15
                      A                      A                      A
 Frequencies --    249.8852               253.3555               258.4706
 Red. masses --      1.1658                 1.1678                 1.0704
 Frc consts  --      0.0429                 0.0442                 0.0421
 IR Inten    --      0.1204                 0.0585                 0.0548

                     16                     17                     18
                      A                      A                      A
 Frequencies --    273.1553               284.7671               288.7892
 Red. masses --      1.8565                 1.0498                 1.1524
 Frc consts  --      0.0816                 0.0502                 0.0566
 IR Inten    --      0.0045                 0.1864                 0.0333

                     19                     20                     21
                      A                      A                      A
 Frequencies --    322.0306               338.7288               351.9429
 Red. masses --      3.0136                 2.7926                 3.2688
 Frc consts  --      0.1841                 0.1888                 0.2386
 IR Inten    --      0.6024                 0.3908                 1.6041

                     22                     23                     24
                      A                      A                      A
 Frequencies --    361.8640               386.0309               407.0027
 Red. masses --      2.8429                 3.5575                 3.2652
 Frc consts  --      0.2193                 0.3123                 0.3187
 IR Inten    --      1.2095                 0.0134                 1.1184

                     25                     26                     27
                      A                      A                      A
 Frequencies --    440.1116               479.7794               533.2404
 Red. masses --      2.4947                 2.8327                 4.3603
 Frc consts  --      0.2847                 0.3842                 0.7305
 IR Inten    --      0.0018                 0.0410                 2.8608

                     28                     29                     30
                      A                      A                      A
 Frequencies --    568.0577               603.3869               626.3895
 Red. masses --      2.9335                 3.7502                 3.1572
 Frc consts  --      0.5577                 0.8044                 0.7299
 IR Inten    --      0.1481                 5.6915                 4.7412

                     31                     32                     33
                      A                      A                      A
 Frequencies --    650.3354               663.5384               771.8545
 Red. masses --      3.3065                 3.8649                 3.4783
 Frc consts  --      0.8239                 1.0026                 1.2209
 IR Inten    --      0.5842                 2.1061                 2.3175

                     34                     35                     36
                      A                      A                      A
 Frequencies --    830.2718               851.1736               896.4245
 Red. masses --      3.6448                 3.1440                 2.4314
 Frc consts  --      1.4804                 1.3421                 1.1512
 IR Inten    --      0.5232                 0.6879                 0.0866

                     37                     38                     39
                      A                      A                      A
 Frequencies --    906.2407               913.2175               937.4072
 Red. masses --      1.5812                 1.3932                 1.1767
 Frc consts  --      0.7651                 0.6845                 0.6092
 IR Inten    --     10.1211                 1.0463                 0.6413

                     40                     41                     42
                      A                      A                      A
 Frequencies --    940.3696               942.9420               956.0620
 Red. masses --      1.2786                 1.1879                 2.1235
 Frc consts  --      0.6661                 0.6223                 1.1436
 IR Inten    --      2.9427                 0.2636                 4.9005

                     43                     44                     45
                      A                      A                      A
 Frequencies --    960.5904               969.8369               977.4799
 Red. masses --      2.1710                 1.4951                 1.4793
 Frc consts  --      1.1803                 0.8286                 0.8327
 IR Inten    --      7.5635                 0.1067                 0.0364

                     46                     47                     48
                      A                      A                      A
 Frequencies --    980.1428              1034.4269              1085.8191
 Red. masses --      1.5341                 7.5888                 1.5310
 Frc consts  --      0.8683                 4.7843                 1.0635
 IR Inten    --      4.5658                47.6656                12.1280

                     49                     50                     51
                      A                      A                      A
 Frequencies --   1103.1504              1129.9310              1130.9277
 Red. masses --      1.6173                 2.3081                 1.6896
 Frc consts  --      1.1596                 1.7362                 1.2732
 IR Inten    --      2.9862                 0.9083                 9.3609

                     52                     53                     54
                      A                      A                      A
 Frequencies --   1133.8484              1140.9060              1174.0812
 Red. masses --      2.2348                 2.1904                 1.7790
 Frc consts  --      1.6928                 1.6799                 1.4449
 IR Inten    --      0.8525                 8.3518                 1.4684

                     55                     56                     57
                      A                      A                      A
 Frequencies --   1189.4348              1208.1569              1225.8016
 Red. masses --      1.9127                 1.9244                 1.6042
 Frc consts  --      1.5943                 1.6550                 1.4202
 IR Inten    --      2.4930                10.8451                 1.1021

                     58                     59                     60
                      A                      A                      A
 Frequencies --   1283.7670              1303.0921              1316.3875
 Red. masses --      1.5217                 2.4003                 4.0828
 Frc consts  --      1.4776                 2.4014                 4.1685
 IR Inten    --      9.4141                 0.8600                 1.6733

                     61                     62                     63
                      A                      A                      A
 Frequencies --   1343.1941              1344.7842              1352.6777
 Red. masses --      1.3981                 1.3984                 1.3266
 Frc consts  --      1.4862                 1.4900                 1.4302
 IR Inten    --      5.4572                 1.9961                 2.4880

                     64                     65                     66
                      A                      A                      A
 Frequencies --   1360.7954              1380.5289              1394.6893
 Red. masses --      1.5884                 1.8966                 1.5665
 Frc consts  --      1.7330                 2.1297                 1.7953
 IR Inten    --     13.7373                 4.3990                 5.7853

                     67                     68                     69
                      A                      A                      A
 Frequencies --   1410.3711              1410.4900              1412.5847
 Red. masses --      1.2441                 1.2520                 1.2339
 Frc consts  --      1.4580                 1.4676                 1.4507
 IR Inten    --      2.6890                 6.0753                 3.8344

                     70                     71                     72
                      A                      A                      A
 Frequencies --   1431.1740              1432.1607              1433.4026
 Red. masses --      1.2439                 1.2377                 1.2334
 Frc consts  --      1.5011                 1.4957                 1.4931
 IR Inten    --      0.9960                 5.8437                 0.6767

                     73                     74                     75
                      A                      A                      A
 Frequencies --   1472.3294              1474.8627              1501.2908
 Red. masses --      2.5083                 2.4958                 1.0439
 Frc consts  --      3.2036                 3.1986                 1.3862
 IR Inten    --     19.8624                21.4002                 0.0961

                     76                     77                     78
                      A                      A                      A
 Frequencies --   1502.9980              1503.6381              1505.2514
 Red. masses --      1.0438                 1.0447                 1.0478
 Frc consts  --      1.3892                 1.3917                 1.3987
 IR Inten    --      4.1039                 0.1844                 1.6865

                     79                     80                     81
                      A                      A                      A
 Frequencies --   1507.1027              1508.7673              1516.9993
 Red. masses --      1.0609                 1.0943                 1.0487
 Frc consts  --      1.4198                 1.4677                 1.4219
 IR Inten    --      4.3985                 0.5478                 7.3918

                     82                     83                     84
                      A                      A                      A
 Frequencies --   1522.5127              1523.0180              1524.0171
 Red. masses --      1.0469                 1.0507                 1.0718
 Frc consts  --      1.4298                 1.4360                 1.4667
 IR Inten    --      9.1325                 5.3613                 5.2783

                     85                     86                     87
                      A                      A                      A
 Frequencies --   1527.8818              1528.5961              1629.0355
 Red. masses --      1.0573                 1.0622                 7.4858
 Frc consts  --      1.4542                 1.4624                11.7044
 IR Inten    --      3.4876                 3.0354                 7.9795

                     88                     89                     90
                      A                      A                      A
 Frequencies --   1647.0167              3034.0066              3040.1107
 Red. masses --      5.1622                 1.0843                 1.0347
 Frc consts  --      8.2505                 5.8810                 5.6345
 IR Inten    --      4.0146                15.2796                21.5123

                     91                     92                     93
                      A                      A                      A
 Frequencies --   3041.3092              3041.4134              3044.0746
 Red. masses --      1.0356                 1.0356                 1.0355
 Frc consts  --      5.6436                 5.6439                 5.6537
 IR Inten    --     27.2703                23.6501                27.9343

                     94                     95                     96
                      A                      A                      A
 Frequencies --   3044.9116              3045.2487              3059.5962
 Red. masses --      1.0381                 1.0379                 1.0814
 Frc consts  --      5.6705                 5.6711                 5.9643
 IR Inten    --     53.5040                 5.9171                 9.3812

                     97                     98                     99
                      A                      A                      A
 Frequencies --   3060.6058              3108.7788              3108.8333
 Red. masses --      1.0815                 1.1025                 1.1024
 Frc consts  --      5.9690                 6.2780                 6.2776
 IR Inten    --      2.3081                 0.3739                 2.2693

                    100                    101                    102
                      A                      A                      A
 Frequencies --   3109.0525              3114.8882              3115.6838
 Red. masses --      1.1025                 1.1017                 1.1013
 Frc consts  --      6.2786                 6.2982                 6.2991
 IR Inten    --      1.3837               108.4114                44.1471

                    103                    104                    105
                      A                      A                      A
 Frequencies --   3115.9846              3121.1395              3122.6503
 Red. masses --      1.1012                 1.1029                 1.1031
 Frc consts  --      6.2996                 6.3301                 6.3375
 IR Inten    --     53.0127                19.0025                58.1799

                    106                    107                    108
                      A                      A                      A
 Frequencies --   3122.7196              3122.8703              3136.7728
 Red. masses --      1.1031                 1.1026                 1.1011
 Frc consts  --      6.3379                 6.3352                 6.3833
 IR Inten    --     19.0703                17.6760                28.1642

                    109                    110                    111
                      A                      A                      A
 Frequencies --   3137.0929              3198.8374              3207.0796
 Red. masses --      1.1011                 1.0888                 1.0882
 Frc consts  --      6.3844                 6.5639                 6.5945
 IR Inten    --      8.4643                10.1293                 9.6407

 - Thermochemistry -
 -------------------
 Temperature   298.150 Kelvin.  Pressure   1.00000 Atm.
 Atom     1 has atomic number  6 and mass  12.00000

 Molecular mass:   282.09831 amu.
 Principal axes and moments of inertia in atomic units:
                           1         2         3
     Eigenvalues --  3856.250705631.459838515.37359
           X            0.99816  -0.06070  -0.00035
           Y            0.06070   0.99815  -0.00173
           Z            0.00046   0.00171   1.00000
 This molecule is an asymmetric top.
 Rotational symmetry number  1.
 Warning -- assumption of classical behavior for rotation
           may cause significant error
 Rotational temperatures (Kelvin)      0.02246     0.01538     0.01017
 Rotational constants (GHZ):           0.46800     0.32047     0.21194
 Zero-point vibrational energy     906823.8 (Joules/Mol)
                                  216.73609 (Kcal/Mol)
 Warning -- explicit consideration of  29 degrees of freedom as
           vibrations may cause significant error
 Vibrational temperatures:     41.58    60.78   114.76   124.20   144.66
          (Kelvin)            191.57   210.09   233.09   253.09   281.40
                              330.76   342.91   359.53   364.52   371.88
                              393.01   409.72   415.50   463.33   487.36
                              506.37   520.64   555.41   585.59   633.22
                              690.30   767.21   817.31   868.14   901.23
                              935.69   954.68  1110.53  1194.58  1224.65
                             1289.75  1303.88  1313.92  1348.72  1352.98
                             1356.68  1375.56  1382.08  1395.38  1406.38
                             1410.21  1488.31  1562.25  1587.19  1625.72
                             1627.15  1631.35  1641.51  1689.24  1711.33
                             1738.27  1763.66  1847.05  1874.86  1893.99
                             1932.56  1934.84  1946.20  1957.88  1986.27
                             2006.65  2029.21  2029.38  2032.39  2059.14
                             2060.56  2062.35  2118.35  2122.00  2160.02
                             2162.48  2163.40  2165.72  2168.38  2170.78
                             2182.62  2190.56  2191.28  2192.72  2198.28
                             2199.31  2343.82  2369.69  4365.26  4374.04
                             4375.77  4375.92  4379.74  4380.95  4381.43
                             4402.08  4403.53  4472.84  4472.92  4473.23
                             4481.63  4482.77  4483.21  4490.62  4492.80
                             4492.90  4493.11  4513.12  4513.58  4602.41
                             4614.27

 Zero-point correction=                           0.345391 (Hartree/Particle)
 Thermal correction to Energy=                    0.363849
 Thermal correction to Enthalpy=                  0.364793
 Thermal correction to Gibbs Free Energy=         0.298995
 Sum of electronic and zero-point Energies=          -3156.955341
 Sum of electronic and thermal Energies=             -3156.936883
 Sum of electronic and thermal Enthalpies=           -3156.935939
 Sum of electronic and thermal Free Energies=        -3157.001737

                     E (Thermal)             CV                S
                      KCal/Mol        Cal/Mol-Kelvin    Cal/Mol-Kelvin
 Total                  228.319             69.652            138.484
 Electronic               0.000              0.000              0.000
 Translational            0.889              2.981             42.809
 Rotational               0.889              2.981             33.580
 Vibrational            226.541             63.690             62.094
 Vibration     1          0.593              1.984              5.903
 Vibration     2          0.595              1.980              5.151
 Vibration     3          0.600              1.963              3.897
 Vibration     4          0.601              1.959              3.742
 Vibration     5          0.604              1.949              3.444
 Vibration     6          0.613              1.920              2.900
 Vibration     7          0.617              1.907              2.723
 Vibration     8          0.622              1.889              2.526
 Vibration     9          0.628              1.872              2.371
 Vibration    10          0.636              1.846              2.174
 Vibration    11          0.652              1.795              1.880
 Vibration    12          0.656              1.782              1.815
 Vibration    13          0.663              1.763              1.731
 Vibration    14          0.665              1.757              1.707
 Vibration    15          0.667              1.748              1.672
 Vibration    16          0.676              1.723              1.576
 Vibration    17          0.683              1.702              1.505
 Vibration    18          0.685              1.695              1.481
 Vibration    19          0.707              1.631              1.300
 Vibration    20          0.719              1.598              1.218
 Vibration    21          0.728              1.571              1.157
 Vibration    22          0.736              1.551              1.114
 Vibration    23          0.755              1.500              1.015
 Vibration    24          0.772              1.455              0.937
 Vibration    25          0.800              1.383              0.826
 Vibration    26          0.836              1.295              0.711
 Vibration    27          0.888              1.176              0.580
 Vibration    28          0.924              1.100              0.508
 Vibration    29          0.962              1.025              0.444

                           ! Non-Optimized Parameters !
 Normal termination of Gaussian 16 at Tue Sep 17 10:07:04 2024.
 Gaussian 16:  ES64L-G16RevC.02  7-Dec-2021

 ----------------------------------------------------------------------
 #p M062X/def2tzvp geom=check guess=read scf(xqc,tight) integral(grid=u
 ltrafine) scrf(SMD, solvent=1,4-Dioxane) polar prop=efg volume
 ----------------------------------------------------------------------

 ---
 spe
 ---
 Structure from the checkpoint file:  "smiles_00105_conf_7.chk"
 Charge =  0 Multiplicity = 1

                         Standard orientation:
 ---------------------------------------------------------------------
 Center     Atomic      Atomic             Coordinates (Angstroms)
 Number     Number       Type             X           Y           Z
 ---------------------------------------------------------------------
      1          6           0       -4.146299   -0.515913    1.287805
      2          6           0       -3.461798   -0.914947   -0.029830
      3          6           0       -4.184669   -0.297176   -1.238023
      4          6           0       -1.985581   -0.557565   -0.020845
      5          6           0       -1.568570    0.771227    0.086987
      6          6           0       -0.218423    1.131042    0.100720
      7          6           0        0.204905    2.590396    0.177974
      8          6           0       -0.824754    3.500527    0.856765
      9          6           0        0.551733    3.112599   -1.229219
     10          6           0        0.717461    0.089469   -0.003253
     11         35           0        2.595601    0.540401    0.010742
     12          6           0        0.357606   -1.260473   -0.115522
     13          6           0        1.396128   -2.370315   -0.181851
     14          6           0        1.921160   -2.684039    1.232025
     15          6           0        0.900360   -3.645370   -0.872981
     16          6           0       -1.012160   -1.550284   -0.119577
     17          1           0       -3.647786   -0.976330    2.145794
     18          1           0       -5.195671   -0.828773    1.290007
     19          1           0       -4.121631    0.569588    1.430666
     20          1           0       -3.529684   -2.006308   -0.123472
     21          1           0       -4.163178    0.796795   -1.191922
     22          1           0       -5.234020   -0.609078   -1.263188
     23          1           0       -3.712503   -0.600617   -2.176967
     24          1           0       -2.315130    1.553250    0.164701
     25          1           0        1.120719    2.623572    0.777916
     26          1           0       -1.124357    3.112522    1.834930
     27          1           0       -0.396360    4.496774    1.001771
     28          1           0       -1.726858    3.623751    0.248102
     29          1           0        1.328823    2.499716   -1.691611
     30          1           0        0.912625    4.145242   -1.179472
     31          1           0       -0.333961    3.089710   -1.873162
     32          1           0        2.236501   -1.983008   -0.767962
     33          1           0        1.112070   -3.067519    1.862845
     34          1           0        2.329288   -1.787201    1.703657
     35          1           0        2.711509   -3.440839    1.190915
     36          1           0        0.473390   -3.431572   -1.857400
     37          1           0        0.142039   -4.165428   -0.278195
     38          1           0        1.735493   -4.339383   -1.007211
     39          1           0       -1.329938   -2.583972   -0.203749
 ---------------------------------------------------------------------

 SCF Done:  E(RM062X) =  -3159.60451001     A.U. after   12 cycles
