 Gaussian 16, Revision C.02,

 ----------------------------------------------------------------------
 #p B3LYP/6-31G(d,p) EmpiricalDispersion=GD3BJ opt freq scf(xqc,tight)
 integral(grid=ultrafine)
 ----------------------------------------------------------------------

 ----------------------------------
 opt-freq conformers_unique/conf_ag
 ----------------------------------
 Symbolic Z-matrix:
 Charge =  0 Multiplicity = 1

 SCF Done:  E(RB3LYP) =  -1163.68148926     A.U. after   15 cycles
 SCF Done:  E(RB3LYP) =  -1163.68348732     A.U. after   12 cycles
 SCF Done:  E(RB3LYP) =  -1163.68361631     A.U. after   11 cycles
 SCF Done:  E(RB3LYP) =  -1163.68359522     A.U. after   12 cycles
 SCF Done:  E(RB3LYP) =  -1163.68382750     A.U. after   10 cycles
 SCF Done:  E(RB3LYP) =  -1163.68413819     A.U. after   11 cycles
 SCF Done:  E(RB3LYP) =  -1163.68370817     A.U. after   15 cycles
 SCF Done:  E(RB3LYP) =  -1163.68444816     A.U. after   11 cycles
 SCF Done:  E(RB3LYP) =  -1163.68443193     A.U. after   11 cycles
 SCF Done:  E(RB3LYP) =  -1163.68456111     A.U. after   11 cycles
 SCF Done:  E(RB3LYP) =  -1163.68457057     A.U. after    9 cycles
 SCF Done:  E(RB3LYP) =  -1163.68457200     A.U. after    9 cycles
 SCF Done:  E(RB3LYP) =  -1163.68457248     A.U. after    8 cycles
 SCF Done:  E(RB3LYP) =  -1163.68457294     A.U. after    8 cycles
 SCF Done:  E(RB3LYP) =  -1163.68457307     A.U. after    7 cycles
 SCF Done:  E(RB3LYP) =  -1163.68457311     A.U. after    7 cycles
 SCF Done:  E(RB3LYP) =  -1163.68457312     A.U. after    7 cycles
 Optimization completed.
    -- Stationary point found.
 Normal termination of Gaussian 16 at Tue Sep 17 09:46:37 2024.

 ----------------------------------------------------------------------
 #P Geom=AllCheck Guess=TCheck SCRF=Check GenChk RB3LYP/6-31G(d,p) Freq
 ----------------------------------------------------------------------

 Structure from the checkpoint file:  "smiles_00058_conf_6.chk"
 ----------------------------------
 opt-freq conformers_unique/conf_ag
 ----------------------------------
 Charge =  0 Multiplicity = 1

 SCF Done:  E(RB3LYP) =  -1163.68457312     A.U. after    1 cycles

                      1                      2                      3
                      A                      A                      A
 Frequencies --     35.5764                43.9268                79.9989
 Red. masses --      5.5930                 7.0923                 4.5147
 Frc consts  --      0.0042                 0.0081                 0.0170
 IR Inten    --      0.0000                 4.0112                 0.2573

                      4                      5                      6
                      A                      A                      A
 Frequencies --     87.4946               116.0024               130.0449
 Red. masses --      4.6044                 1.8349                 1.1313
 Frc consts  --      0.0208                 0.0145                 0.0113
 IR Inten    --      0.0090                 0.0000                 0.3758

                      7                      8                      9
                      A                      A                      A
 Frequencies --    136.3389               142.1103               181.2950
 Red. masses --      1.5528                 7.4993                 5.5040
 Frc consts  --      0.0170                 0.0892                 0.1066
 IR Inten    --      0.0000                 1.8796                10.8971

                     10                     11                     12
                      A                      A                      A
 Frequencies --    210.1878               225.4805               226.4295
 Red. masses --      4.1114                 6.8758                 6.6992
 Frc consts  --      0.1070                 0.2060                 0.2024
 IR Inten    --      0.0000                 0.0627                 2.4715

                     13                     14                     15
                      A                      A                      A
 Frequencies --    298.7953               321.5155               344.9332
 Red. masses --      5.2152                 7.0420                 4.4706
 Frc consts  --      0.2743                 0.4289                 0.3134
 IR Inten    --     21.0484                 4.9725                11.2753

                     16                     17                     18
                      A                      A                      A
 Frequencies --    389.8708               403.7861               479.8565
 Red. masses --     12.4806                 6.9062                 8.9931
 Frc consts  --      1.1177                 0.6634                 1.2201
 IR Inten    --     11.9082                 6.3219                 0.6358

                     19                     20                     21
                      A                      A                      A
 Frequencies --    502.7081               546.3596               582.9428
 Red. masses --      6.1952                 6.7895                 7.0039
 Frc consts  --      0.9224                 1.1941                 1.4023
 IR Inten    --      0.0000                15.8328                 1.0111

                     22                     23                     24
                      A                      A                      A
 Frequencies --    701.5304               750.9973               773.9640
 Red. masses --      6.5444                 6.8365                 8.1907
 Frc consts  --      1.8977                 2.2717                 2.8907
 IR Inten    --     10.9215                25.3687                81.9455

                     25                     26                     27
                      A                      A                      A
 Frequencies --    785.7944               795.1931               857.0673
 Red. masses --      4.4973                 7.3812                 6.4331
 Frc consts  --      1.6361                 2.7499                 2.7842
 IR Inten    --     15.2677                 0.0000                45.0694

                     28                     29                     30
                      A                      A                      A
 Frequencies --    915.0772               931.0556               953.2352
 Red. masses --      6.3771                 1.5377                 1.3927
 Frc consts  --      3.1462                 0.7854                 0.7456
 IR Inten    --     11.9044                16.2956                 0.0000

                     31                     32                     33
                      A                      A                      A
 Frequencies --   1013.5133              1017.5452              1032.4815
 Red. masses --      8.2777                 6.8621                 6.8021
 Frc consts  --      5.0098                 4.1861                 4.2723
 IR Inten    --     10.0896                30.6110                30.7727

                     34                     35                     36
                      A                      A                      A
 Frequencies --   1118.5370              1174.5881              1179.2424
 Red. masses --      1.3830                 1.7282                 1.2778
 Frc consts  --      1.0195                 1.4048                 1.0469
 IR Inten    --      2.5892                41.3469                 0.0586

                     37                     38                     39
                      A                      A                      A
 Frequencies --   1179.2809              1190.1794              1215.8941
 Red. masses --      1.2779                 2.3603                 1.5057
 Frc consts  --      1.0471                 1.9699                 1.3116
 IR Inten    --      1.6383                30.6843                 0.0301

                     40                     41                     42
                      A                      A                      A
 Frequencies --   1233.9190              1291.3222              1325.5678
 Red. masses --      2.8647                 3.8482                10.1527
 Frc consts  --      2.5698                 3.7807                10.5108
 IR Inten    --    114.5983               338.4355                 0.0957

                     43                     44                     45
                      A                      A                      A
 Frequencies --   1370.8419              1446.3827              1463.9757
 Red. masses --      5.3302                 3.0938                 3.5593
 Frc consts  --      5.9016                 3.8133                 4.4945
 IR Inten    --    729.9948                 1.8621                 0.0655

                     46                     47                     48
                      A                      A                      A
 Frequencies --   1485.7628              1486.0193              1496.4372
 Red. masses --      1.3863                 1.3894                 1.0463
 Frc consts  --      1.8030                 1.8077                 1.3805
 IR Inten    --     27.3329                39.7905                 0.0073

                     49                     50                     51
                      A                      A                      A
 Frequencies --   1496.6138              1507.4580              1507.7363
 Red. masses --      1.0463                 1.0565                 1.0577
 Frc consts  --      1.3808                 1.4145                 1.4166
 IR Inten    --     13.4874                 0.7136                10.1684

                     52                     53                     54
                      A                      A                      A
 Frequencies --   1615.9934              1617.1240              1800.6486
 Red. masses --      6.4501                 9.8305                11.6809
 Frc consts  --      9.9242                15.1465                22.3143
 IR Inten    --     82.9215                12.5874               236.4162

                     55                     56                     57
                      A                      A                      A
 Frequencies --   1803.5094              3066.6878              3066.8667
 Red. masses --     11.6660                 1.0300                 1.0301
 Frc consts  --     22.3567                 5.7075                 5.7085
 IR Inten    --    120.6959                37.4288                28.9134

                     58                     59                     60
                      A                      A                      A
 Frequencies --   3144.0286              3144.1002              3182.6696
 Red. masses --      1.1069                 1.1069                 1.1069
 Frc consts  --      6.4469                 6.4472                 6.6061
 IR Inten    --      0.1687                37.6384                 2.1313

                     61                     62                     63
                      A                      A                      A
 Frequencies --   3182.7660              3249.6772              3249.9779
 Red. masses --      1.1069                 1.0936                 1.0922
 Frc consts  --      6.6066                 6.8041                 6.7971
 IR Inten    --     24.9337                 0.4522                 9.7876

 - Thermochemistry -
 -------------------
 Temperature   298.150 Kelvin.  Pressure   1.00000 Atm.
 Atom     1 has atomic number  6 and mass  12.00000

 Molecular mass:   229.01419 amu.
 Principal axes and moments of inertia in atomic units:
                           1         2         3
     Eigenvalues --  3684.126604192.298337853.69404
           X            1.00000   0.00000   0.00000
           Y           -0.00000   1.00000   0.00000
           Z           -0.00000  -0.00000   1.00000
 This molecule is an asymmetric top.
 Rotational symmetry number  1.
 Warning -- assumption of classical behavior for rotation
           may cause significant error
 Rotational temperatures (Kelvin)      0.02351     0.02066     0.01103
 Rotational constants (GHZ):           0.48987     0.43049     0.22980
 Zero-point vibrational energy     432491.4 (Joules/Mol)
                                  103.36793 (Kcal/Mol)
 Warning -- explicit consideration of  21 degrees of freedom as
           vibrations may cause significant error
 Vibrational temperatures:     51.19    63.20   115.10   125.89   166.90
          (Kelvin)            187.11   196.16   204.47   260.84   302.41
                              324.42   325.78   429.90   462.59   496.28
                              560.94   580.96   690.41   723.28   786.09
                              838.72  1009.35  1080.52  1113.56  1130.58
                             1144.11  1233.13  1316.59  1339.58  1371.49
                             1458.22  1464.02  1485.51  1609.33  1689.97
                             1696.67  1696.72  1712.40  1749.40  1775.33
                             1857.92  1907.20  1972.34  2081.02  2106.33
                             2137.68  2138.05  2153.04  2153.29  2168.90
                             2169.30  2325.05  2326.68  2590.73  2594.85
                             4412.28  4412.54  4523.56  4523.66  4579.15
                             4579.29  4675.56  4675.99

 Zero-point correction=                           0.164727 (Hartree/Particle)
 Thermal correction to Energy=                    0.179291
 Thermal correction to Enthalpy=                  0.180235
 Thermal correction to Gibbs Free Energy=         0.121219
 Sum of electronic and zero-point Energies=          -1163.519846
 Sum of electronic and thermal Energies=             -1163.505282
 Sum of electronic and thermal Enthalpies=           -1163.504338
 Sum of electronic and thermal Free Energies=        -1163.563354

                     E (Thermal)             CV                S
                      KCal/Mol        Cal/Mol-Kelvin    Cal/Mol-Kelvin
 Total                  112.507             50.711            124.211
 Electronic               0.000              0.000              0.000
 Translational            0.889              2.981             42.188
 Rotational               0.889              2.981             33.161
 Vibrational            110.729             44.750             48.862
 Vibration     1          0.594              1.982              5.491
 Vibration     2          0.595              1.980              5.074
 Vibration     3          0.600              1.963              3.891
 Vibration     4          0.601              1.958              3.715
 Vibration     5          0.608              1.936              3.166
 Vibration     6          0.612              1.923              2.945
 Vibration     7          0.614              1.917              2.855
 Vibration     8          0.616              1.911              2.775
 Vibration     9          0.630              1.865              2.315
 Vibration    10          0.642              1.825              2.042
 Vibration    11          0.650              1.802              1.915
 Vibration    12          0.650              1.801              1.907
 Vibration    13          0.692              1.676              1.424
 Vibration    14          0.707              1.632              1.302
 Vibration    15          0.723              1.586              1.189
 Vibration    16          0.758              1.492              1.001
 Vibration    17          0.769              1.462              0.949
 Vibration    18          0.836              1.295              0.710
 Vibration    19          0.858              1.244              0.651
 Vibration    20          0.902              1.148              0.552
 Vibration    21          0.940              1.068              0.480

 Optimization completed.
    -- Stationary point found.
 Normal termination of Gaussian 16 at Tue Sep 17 09:49:06 2024.

 ----------------------------------------------------------------------
 #p M062X/def2tzvp geom=check guess=read scf(xqc,tight) integral(grid=u
 ltrafine) scrf(SMD, solvent=1,4-Dioxane) polar prop=efg volume
 ----------------------------------------------------------------------

 ---
 spe
 ---
 Structure from the checkpoint file:  "smiles_00058_conf_6.chk"
 Charge =  0 Multiplicity = 1

 SCF Done:  E(RM062X) =  -1163.64513741     A.U. after   12 cycles

  Exact polarizability:     183.537      -0.001     196.161      -0.004       0.000      87.360
 Approx polarizability:     194.689      -0.000     202.785      -0.008       0.001     108.467

 Normal termination of Gaussian 16 at Tue Sep 17 10:59:27 2024.
 Gaussian 16:  ES64L-G16RevC.02  7-Dec-2021

 ----------------------------------------------------------------------
 #p M062X/def2tzvp geom=check guess=read scf(xqc,tight) integral(grid=u
 ltrafine) scrf(SMD, solvent=1,4-Dioxane) nmr=giao
 ----------------------------------------------------------------------

 ---
 spe
 ---
 Structure from the checkpoint file:  "smiles_00058_conf_6.chk"
 Charge =  0 Multiplicity = 1

                         Standard orientation:
 ---------------------------------------------------------------------
 Center     Atomic      Atomic             Coordinates (Angstroms)
 Number     Number       Type             X           Y           Z
 ---------------------------------------------------------------------
      1          6           0        3.518316   -2.794265    0.000220
      2          8           0        2.293160   -2.042700    0.000248
      3          6           0        2.448513   -0.714550   -0.000062
      4          8           0        3.524236   -0.147794   -0.000317
      5          6           0        1.139858    0.027024   -0.000036
      6          6           0        1.202689    1.425111   -0.000054
      7          6           0       -0.000038    2.122103   -0.000009
      8         17           0       -0.000071    3.868520   -0.000019
      9          6           0       -1.202741    1.425068    0.000047
     10          6           0       -1.139863    0.026986    0.000041
     11          6           0       -2.448497   -0.714628    0.000088
     12          8           0       -3.524234   -0.147904    0.000439
     13          8           0       -2.293086   -2.042766   -0.000335
     14          6           0       -3.518203   -2.794380   -0.000232
     15          7           0        0.000010   -0.669090    0.000003
     16          1           0        4.109576   -2.561335   -0.888433
     17          1           0        4.109831   -2.560987    0.888613
     18          1           0        3.217021   -3.840643    0.000468
     19          1           0        2.164043    1.921840   -0.000112
     20          1           0       -2.164111    1.921767    0.000110
     21          1           0       -3.216863   -3.840747   -0.000518
     22          1           0       -4.109398   -2.561478    0.888469
     23          1           0       -4.109775   -2.561133   -0.888597
 ---------------------------------------------------------------------

 SCF Done:  E(RM062X) =  -1163.64513741     A.U. after    1 cycles

      1  C    Isotropic =   129.9172   Anisotropy =    73.3664

      2  O    Isotropic =   130.9309   Anisotropy =   188.4538

      3  C    Isotropic =    -0.2795   Anisotropy =   103.6295

      4  O    Isotropic =  -132.8712   Anisotropy =   694.5105

      5  C    Isotropic =    12.7804   Anisotropy =   171.3178

      6  C    Isotropic =    33.6568   Anisotropy =   197.5095

      7  C    Isotropic =     6.8090   Anisotropy =   172.2079

      8  Cl   Isotropic =   653.7112   Anisotropy =   489.5376

      9  C    Isotropic =    33.6566   Anisotropy =   197.5094

     10  C    Isotropic =    12.7801   Anisotropy =   171.3183

     11  C    Isotropic =    -0.2783   Anisotropy =   103.6284

     12  O    Isotropic =  -132.8641   Anisotropy =   694.5037

     13  O    Isotropic =   130.9347   Anisotropy =   188.4582

     14  C    Isotropic =   129.9180   Anisotropy =    73.3647

     15  N    Isotropic =  -140.2424   Anisotropy =   657.4838

     16  H    Isotropic =    27.8731   Anisotropy =     8.0709

     17  H    Isotropic =    27.8732   Anisotropy =     8.0710

     18  H    Isotropic =    27.8773   Anisotropy =     7.4258

     19  H    Isotropic =    22.4673   Anisotropy =    12.1554

     20  H    Isotropic =    22.4673   Anisotropy =    12.1555

     21  H    Isotropic =    27.8773   Anisotropy =     7.4257

     22  H    Isotropic =    27.8731   Anisotropy =     8.0709

     23  H    Isotropic =    27.8732   Anisotropy =     8.0711

 The electronic state is 1-A.
 Alpha  occ. eigenvalues -- -102.66622 -19.68159 -19.68159 -19.62924 -19.62924
 Alpha  occ. eigenvalues --  -14.78139 -10.68776 -10.68776 -10.64053 -10.61577
 Alpha  occ. eigenvalues --  -10.61574 -10.59133 -10.59133 -10.58316 -10.58315
 Alpha  occ. eigenvalues --   -9.82863  -7.55067  -7.54548  -7.54520  -1.24465
 Alpha  occ. eigenvalues --   -1.24404  -1.15064  -1.15057  -1.08947  -0.99978
 Alpha  occ. eigenvalues --   -0.91453  -0.89760  -0.83840  -0.83093  -0.75493
 Alpha  occ. eigenvalues --   -0.75341  -0.67159  -0.65403  -0.62881  -0.61980
 Alpha  occ. eigenvalues --   -0.58680  -0.58088  -0.57934  -0.57453  -0.56719
 Alpha  occ. eigenvalues --   -0.55732  -0.51800  -0.51457  -0.50324  -0.48679
 Alpha  occ. eigenvalues --   -0.47919  -0.47119  -0.46936  -0.43948  -0.43783
 Alpha  occ. eigenvalues --   -0.43715  -0.39837  -0.39796  -0.38578  -0.38545
 Alpha  occ. eigenvalues --   -0.36982  -0.34856  -0.34706  -0.34445
 Alpha virt. eigenvalues --   -0.04767  -0.04115   0.04747   0.05333   0.08098
 Alpha virt. eigenvalues --    0.08661   0.10359   0.10456   0.11531   0.12031
 Alpha virt. eigenvalues --    0.13280   0.13569   0.14591   0.14770   0.15665

 Mulliken charges:
               1
     1  C   -0.277102
     2  O   -0.238393
     3  C    0.345704
     4  O   -0.362901
     5  C    0.099616
     6  C   -0.177357
     7  C    0.101261
     8  Cl  -0.053149
     9  C   -0.177356
    10  C    0.099611
    11  C    0.345704
    12  O   -0.362898
    13  O   -0.238388
    14  C   -0.277100
    15  N   -0.205720
    16  H    0.161849
    17  H    0.161847
    18  H    0.161423
    19  H    0.204115
    20  H    0.204115
    21  H    0.161423
    22  H    0.161848
    23  H    0.161846
 Sum of Mulliken charges =  -0.00000

 Dipole moment (field-independent basis, Debye):
    X=              0.0000    Y=             -2.2823    Z=             -0.0001  Tot=              2.2823
 Quadrupole moment (field-independent basis, Debye-Ang):
   XX=            -94.4651   YY=            -80.8921   ZZ=            -91.3189
   XY=             -0.0002   XZ=              0.0052   YZ=             -0.0002

 Normal termination of Gaussian 16 at Tue Sep 17 11:25:34 2024.
