 Gaussian 16, Revision C.02,

 ----------------------------------------------------------------------
 #p B3LYP/6-31G(d,p) EmpiricalDispersion=GD3BJ opt freq scf(xqc,tight)
 integral(grid=ultrafine)
 ----------------------------------------------------------------------

 ----------------------------------
 opt-freq conformers_unique/conf_ac
 ----------------------------------
 Symbolic Z-matrix:
 Charge =  0 Multiplicity = 1

 SCF Done:  E(RB3LYP) =  -3630.84325871     A.U. after   15 cycles
 SCF Done:  E(RB3LYP) =  -3630.84524950     A.U. after   12 cycles
 SCF Done:  E(RB3LYP) =  -3630.84497334     A.U. after   12 cycles
 SCF Done:  E(RB3LYP) =  -3630.84516541     A.U. after   13 cycles
 SCF Done:  E(RB3LYP) =  -3630.84538007     A.U. after    9 cycles
 SCF Done:  E(RB3LYP) =  -3630.84552596     A.U. after   12 cycles
 SCF Done:  E(RB3LYP) =  -3630.84467455     A.U. after   16 cycles
 SCF Done:  E(RB3LYP) =  -3630.84615025     A.U. after   13 cycles
 SCF Done:  E(RB3LYP) =  -3630.84629122     A.U. after   15 cycles
 SCF Done:  E(RB3LYP) =  -3630.84687084     A.U. after   12 cycles
 SCF Done:  E(RB3LYP) =  -3630.84701658     A.U. after   13 cycles
 SCF Done:  E(RB3LYP) =  -3630.84715371     A.U. after   13 cycles
 SCF Done:  E(RB3LYP) =  -3630.84715942     A.U. after   15 cycles
 SCF Done:  E(RB3LYP) =  -3630.84735095     A.U. after   13 cycles
 SCF Done:  E(RB3LYP) =  -3630.84739078     A.U. after   10 cycles
 SCF Done:  E(RB3LYP) =  -3630.84740037     A.U. after   11 cycles
 SCF Done:  E(RB3LYP) =  -3630.84740082     A.U. after    9 cycles
 Optimization completed.
    -- Stationary point found.
 Normal termination of Gaussian 16 at Tue Sep 17 09:47:51 2024.

 ----------------------------------------------------------------------
 #P Geom=AllCheck Guess=TCheck SCRF=Check GenChk RB3LYP/6-31G(d,p) Freq
 ----------------------------------------------------------------------

 Structure from the checkpoint file:  "smiles_00068_conf_2.chk"
 ----------------------------------
 opt-freq conformers_unique/conf_ac
 ----------------------------------
 Charge =  0 Multiplicity = 1

 SCF Done:  E(RB3LYP) =  -3630.84740082     A.U. after    1 cycles

                      1                      2                      3
                      A                      A                      A
 Frequencies --     14.9870                40.9488                56.4254
 Red. masses --     17.2233                17.2024                17.4579
 Frc consts  --      0.0023                 0.0170                 0.0327
 IR Inten    --      0.4159                 0.2094                 0.5887

                      4                      5                      6
                      A                      A                      A
 Frequencies --    112.8756               123.0896               155.4928
 Red. masses --     14.9678                10.7690                15.1934
 Frc consts  --      0.1124                 0.0961                 0.2164
 IR Inten    --      3.7933                 3.5596                 0.5475

                      7                      8                      9
                      A                      A                      A
 Frequencies --    186.5844               212.3876               275.5319
 Red. masses --      5.1237                 5.2460                15.2873
 Frc consts  --      0.1051                 0.1394                 0.6838
 IR Inten    --      1.1549                 1.5271                 0.3163

                     10                     11                     12
                      A                      A                      A
 Frequencies --    300.7786               321.0849               361.9471
 Red. masses --      9.7518                15.0833                 9.3973
 Frc consts  --      0.5198                 0.9162                 0.7253
 IR Inten    --      2.9735                 1.8143                 0.2241

                     13                     14                     15
                      A                      A                      A
 Frequencies --    404.9308               444.8675               455.1045
 Red. masses --      6.4365                12.5071                16.1924
 Frc consts  --      0.6218                 1.4584                 1.9760
 IR Inten    --      3.7169                 1.9429                 4.3303

                     16                     17                     18
                      A                      A                      A
 Frequencies --    466.1342               529.3924               532.9609
 Red. masses --      8.5822                 8.8331                17.8466
 Frc consts  --      1.0987                 1.4585                 2.9867
 IR Inten    --      0.2189                 1.3189                 1.5075

                     19                     20                     21
                      A                      A                      A
 Frequencies --    571.4890               585.8245               621.5446
 Red. masses --      8.7814                 7.3503                 7.0446
 Frc consts  --      1.6898                 1.4862                 1.6034
 IR Inten    --      2.5398                 0.2617                 1.4827

                     22                     23                     24
                      A                      A                      A
 Frequencies --    695.0455               756.5564               785.4741
 Red. masses --      2.4295                17.5353                11.0303
 Frc consts  --      0.6915                 5.9135                 4.0096
 IR Inten    --     15.9470                21.9375                40.1281

                     25                     26                     27
                      A                      A                      A
 Frequencies --    885.3989               904.0507               925.1328
 Red. masses --      9.7971                 1.5730                 1.3662
 Frc consts  --      4.5251                 0.7575                 0.6889
 IR Inten    --     17.9399                19.2585                 0.4104

                     28                     29                     30
                      A                      A                      A
 Frequencies --    933.0105              1015.7645              1121.9947
 Red. masses --      1.3834                 6.1563                 8.0907
 Frc consts  --      0.7095                 3.7424                 6.0009
 IR Inten    --      3.0386                 3.3479               397.3990

                     31                     32                     33
                      A                      A                      A
 Frequencies --   1136.0148              1147.6732              1199.7286
 Red. masses --      1.7855                 1.7306                12.4177
 Frc consts  --      1.3576                 1.3430                10.5307
 IR Inten    --      9.8684                54.0235               209.6772

                     34                     35                     36
                      A                      A                      A
 Frequencies --   1232.0421              1234.3603              1291.8461
 Red. masses --     12.1205                 4.2962                 1.4953
 Frc consts  --     10.8399                 3.8567                 1.4703
 IR Inten    --    223.7345                26.9939                 0.4164

                     37                     38                     39
                      A                      A                      A
 Frequencies --   1342.9356              1446.4742              1458.2688
 Red. masses --      3.6605                 3.0541                 3.3583
 Frc consts  --      3.8896                 3.7649                 4.2077
 IR Inten    --      0.3536                22.6707                12.1796

                     40                     41                     42
                      A                      A                      A
 Frequencies --   1601.8145              1632.9520              2358.3094
 Red. masses --      5.8898                 6.0968                12.6794
 Frc consts  --      8.9037                 9.5785                41.5481
 IR Inten    --     63.0115                 9.7296                14.6288

                     43                     44                     45
                      A                      A                      A
 Frequencies --   3234.2392              3237.0243              3242.7047
 Red. masses --      1.0930                 1.0932                 1.0927
 Frc consts  --      6.7363                 6.7487                 6.7698
 IR Inten    --      1.1230                 1.2047                 2.5817

 - Thermochemistry -
 -------------------
 Temperature   298.150 Kelvin.  Pressure   1.00000 Atm.
 Atom     1 has atomic number  7 and mass  14.00307

 Molecular mass:   280.91217 amu.
 Principal axes and moments of inertia in atomic units:
                           1         2         3
     Eigenvalues --  3438.436386378.320919050.73115
           X            0.99901   0.04415   0.00451
           Y           -0.04416   0.99902   0.00264
           Z           -0.00439  -0.00284   0.99999
 This molecule is an asymmetric top.
 Rotational symmetry number  1.
 Warning -- assumption of classical behavior for rotation
           may cause significant error
 Rotational temperatures (Kelvin)      0.02519     0.01358     0.00957
 Rotational constants (GHZ):           0.52487     0.28295     0.19940
 Zero-point vibrational energy     248782.6 (Joules/Mol)
                                   59.46046 (Kcal/Mol)
 Warning -- explicit consideration of  20 degrees of freedom as
           vibrations may cause significant error
 Vibrational temperatures:     21.56    58.92    81.18   162.40   177.10
          (Kelvin)            223.72   268.45   305.58   396.43   432.75
                              461.97   520.76   582.61   640.07   654.79
                              670.66   761.68   766.81   822.25   842.87
                              894.26  1000.02  1088.52  1130.12  1273.89
                             1300.73  1331.06  1342.39  1461.46  1614.30
                             1634.47  1651.25  1726.14  1772.63  1775.97
                             1858.68  1932.18  2081.15  2098.12  2304.65
                             2349.45  3393.08  4653.35  4657.36  4665.53

 Zero-point correction=                           0.094756 (Hartree/Particle)
 Thermal correction to Energy=                    0.107608
 Thermal correction to Enthalpy=                  0.108552
 Thermal correction to Gibbs Free Energy=         0.051722
 Sum of electronic and zero-point Energies=          -3630.752645
 Sum of electronic and thermal Energies=             -3630.739793
 Sum of electronic and thermal Enthalpies=           -3630.738849
 Sum of electronic and thermal Free Energies=        -3630.795679

                     E (Thermal)             CV                S
                      KCal/Mol        Cal/Mol-Kelvin    Cal/Mol-Kelvin
 Total                   67.525             45.357            119.610
 Electronic               0.000              0.000              0.000
 Translational            0.889              2.981             42.797
 Rotational               0.889              2.981             33.650
 Vibrational             65.748             39.396             43.163
 Vibration     1          0.593              1.986              7.207
 Vibration     2          0.594              1.981              5.213
 Vibration     3          0.596              1.975              4.578
 Vibration     4          0.607              1.939              3.219
 Vibration     5          0.610              1.930              3.051
 Vibration     6          0.620              1.897              2.604
 Vibration     7          0.632              1.858              2.261
 Vibration     8          0.643              1.822              2.023
 Vibration     9          0.677              1.719              1.561
 Vibration    10          0.693              1.672              1.413
 Vibration    11          0.707              1.633              1.305
 Vibration    12          0.736              1.551              1.114
 Vibration    13          0.770              1.459              0.945
 Vibration    14          0.804              1.372              0.811
 Vibration    15          0.813              1.350              0.780
 Vibration    16          0.823              1.325              0.748
 Vibration    17          0.884              1.185              0.589
 Vibration    18          0.888              1.177              0.581
 Vibration    19          0.928              1.093              0.501
 Vibration    20          0.943              1.062              0.475

 Optimization completed.
    -- Stationary point found.
 Normal termination of Gaussian 16 at Tue Sep 17 09:49:07 2024.

 ----------------------------------------------------------------------
 #p M062X/def2tzvp geom=check guess=read scf(xqc,tight) integral(grid=u
 ltrafine) scrf(SMD, solvent=1,4-Dioxane) polar prop=efg volume
 ----------------------------------------------------------------------

 ---
 spe
 ---
 Structure from the checkpoint file:  "smiles_00068_conf_2.chk"
 Charge =  0 Multiplicity = 1

 SCF Done:  E(RM062X) =  -3633.33946584     A.U. after   13 cycles

  Exact polarizability:     186.314       3.795     192.925      16.285       6.422      97.796
 Approx polarizability:     194.486       3.029     214.885      17.955       7.726     122.431

 Normal termination of Gaussian 16 at Tue Sep 17 10:39:54 2024.
 Gaussian 16:  ES64L-G16RevC.02  7-Dec-2021

 ----------------------------------------------------------------------
 #p M062X/def2tzvp geom=check guess=read scf(xqc,tight) integral(grid=u
 ltrafine) scrf(SMD, solvent=1,4-Dioxane) nmr=giao
 ----------------------------------------------------------------------

 ---
 spe
 ---
 Structure from the checkpoint file:  "smiles_00068_conf_2.chk"
 Charge =  0 Multiplicity = 1

                         Standard orientation:
 ---------------------------------------------------------------------
 Center     Atomic      Atomic             Coordinates (Angstroms)
 Number     Number       Type             X           Y           Z
 ---------------------------------------------------------------------
      1          7           0        1.877622    4.476959    0.463209
      2          6           0        1.516168    3.391955    0.254824
      3          6           0        1.069244    2.054878   -0.003778
      4          6           0        1.966960    0.985925    0.132007
      5          6           0        1.516725   -0.305199   -0.123596
      6         35           0        2.725569   -1.763807    0.055040
      7          6           0        0.203876   -0.552992   -0.517484
      8          6           0       -0.684501    0.522000   -0.637058
      9         16           0       -2.371804    0.241959   -1.173418
     10          6           0       -3.014649   -0.535968    0.350492
     11          9           0       -4.315619   -0.787104    0.154028
     12          9           0       -2.397211   -1.697251    0.635819
     13          9           0       -2.883956    0.255920    1.424048
     14          6           0       -0.262260    1.826275   -0.381397
     15          1           0        2.992314    1.165590    0.429176
     16          1           0       -0.126176   -1.562637   -0.723432
     17          1           0       -0.953834    2.654922   -0.469034
 ---------------------------------------------------------------------

 SCF Done:  E(RM062X) =  -3633.33946584     A.U. after    1 cycles

      1  N    Isotropic =   -86.6675   Anisotropy =   466.0703

      2  C    Isotropic =    51.5462   Anisotropy =   378.4537

      3  C    Isotropic =    48.3696   Anisotropy =   170.6407

      4  C    Isotropic =    22.1673   Anisotropy =   198.8788

      5  C    Isotropic =    22.2726   Anisotropy =   157.6412

      6  Br   Isotropic =  2019.9332   Anisotropy =  1344.0425

      7  C    Isotropic =    16.2519   Anisotropy =   185.3543

      8  C    Isotropic =    31.5410   Anisotropy =   180.0134

      9  S    Isotropic =   283.6688   Anisotropy =   357.7775

     10  C    Isotropic =    39.9609   Anisotropy =    19.5419

     11  F    Isotropic =   226.4766   Anisotropy =   149.0825

     12  F    Isotropic =   214.8621   Anisotropy =   158.9207

     13  F    Isotropic =   215.7680   Anisotropy =   157.2446

     14  C    Isotropic =    20.6080   Anisotropy =   204.1572

     15  H    Isotropic =    23.1667   Anisotropy =    11.5165

     16  H    Isotropic =    22.9528   Anisotropy =    14.3241

     17  H    Isotropic =    23.1420   Anisotropy =    10.0616

 The electronic state is 1-A.
 Alpha  occ. eigenvalues -- -485.39617 -89.94944 -63.38088 -57.20041 -57.19794
 Alpha  occ. eigenvalues --  -57.19786 -25.30466 -25.30118 -25.30109 -14.77555
 Alpha  occ. eigenvalues --  -10.83581 -10.63574 -10.62034 -10.61878 -10.60137
 Alpha  occ. eigenvalues --  -10.59820 -10.59649 -10.59540  -9.04733  -8.30800
 Alpha  occ. eigenvalues --   -6.87168  -6.86250  -6.86222  -6.22770  -6.22564
 Alpha  occ. eigenvalues --   -6.22199  -2.90544  -2.90213  -2.90183  -2.89328
 Alpha  occ. eigenvalues --   -2.89328  -1.48584  -1.39810  -1.39344  -1.04007
 Alpha  occ. eigenvalues --   -1.01784  -0.94608  -0.92923  -0.87804  -0.85054
 Alpha  occ. eigenvalues --   -0.80224  -0.76744  -0.72186  -0.71278  -0.70932
 Alpha  occ. eigenvalues --   -0.66813  -0.62790  -0.60273  -0.59610  -0.59442
 Alpha  occ. eigenvalues --   -0.58654  -0.55986  -0.55485  -0.53627  -0.51706
 Alpha  occ. eigenvalues --   -0.51442  -0.51028  -0.47638  -0.46430  -0.45387
 Alpha  occ. eigenvalues --   -0.44958  -0.43907  -0.41726  -0.39784  -0.37201
 Alpha  occ. eigenvalues --   -0.35694  -0.33692  -0.32701
 Alpha virt. eigenvalues --   -0.05340  -0.03265   0.00823   0.03166   0.05411
 Alpha virt. eigenvalues --    0.07155   0.07987   0.09403   0.10210   0.11425
 Alpha virt. eigenvalues --    0.12639   0.13694   0.14462   0.14940   0.15294

 Mulliken charges:
               1
     1  N   -0.024995
     2  C   -0.216911
     3  C    0.231696
     4  C   -0.198912
     5  C    0.060394
     6  Br  -0.065957
     7  C   -0.122467
     8  C   -0.035502
     9  S   -0.005439
    10  C    0.449912
    11  F   -0.160282
    12  F   -0.168325
    13  F   -0.162129
    14  C   -0.197429
    15  H    0.208686
    16  H    0.204497
    17  H    0.203165
 Sum of Mulliken charges =  -0.00000

 Dipole moment (field-independent basis, Debye):
    X=             -0.1689    Y=             -2.5475    Z=             -1.3712  Tot=              2.8980
 Quadrupole moment (field-independent basis, Debye-Ang):
   XX=           -101.5121   YY=           -117.8086   ZZ=            -98.7821
   XY=             -9.9247   XZ=              1.3801   YZ=             -3.0411

 Normal termination of Gaussian 16 at Tue Sep 17 10:58:02 2024.
