 Gaussian 16, Revision C.02,

 ----------------------------------------------------------------------
 #p B3LYP/6-31G(d,p) EmpiricalDispersion=GD3BJ opt freq scf(xqc,tight)
 integral(grid=ultrafine)
 ----------------------------------------------------------------------

 ----------------------------------
 opt-freq conformers_unique/conf_aa
 ----------------------------------
 Symbolic Z-matrix:
 Charge =  0 Multiplicity = 1

 SCF Done:  E(RB3LYP) =  -2819.41535464     A.U. after   14 cycles
 SCF Done:  E(RB3LYP) =  -2819.41635031     A.U. after   12 cycles
 SCF Done:  E(RB3LYP) =  -2819.41638748     A.U. after    9 cycles
 SCF Done:  E(RB3LYP) =  -2819.41638942     A.U. after    8 cycles
 Optimization completed.
    -- Stationary point found.
 Normal termination of Gaussian 16 at Tue Sep 17 09:50:35 2024.

 ----------------------------------------------------------------------
 #P Geom=AllCheck Guess=TCheck SCRF=Check GenChk RB3LYP/6-31G(d,p) Freq
 ----------------------------------------------------------------------

 Structure from the checkpoint file:  "smiles_00040_conf_0.chk"
 ----------------------------------
 opt-freq conformers_unique/conf_aa
 ----------------------------------
 Charge =  0 Multiplicity = 1

 SCF Done:  E(RB3LYP) =  -2819.41638942     A.U. after    1 cycles

                      1                      2                      3
                      A                      A                      A
 Frequencies --    174.4857               250.0731               321.6853
 Red. masses --      4.5086                 5.6204                11.5782
 Frc consts  --      0.0809                 0.2071                 0.7059
 IR Inten    --      0.0061                 0.6665                 3.2012

                      4                      5                      6
                      A                      A                      A
 Frequencies --    414.0042               467.3309               624.4105
 Red. masses --      3.0568                 4.3172                 7.8853
 Frc consts  --      0.3087                 0.5555                 1.8114
 IR Inten    --      2.6193                 0.0097                 5.8367

                      7                      8                      9
                      A                      A                      A
 Frequencies --    716.1561               721.5454               816.0307
 Red. masses --      7.4342                 2.3345                 1.4860
 Frc consts  --      2.2465                 0.7161                 0.5830
 IR Inten    --     13.5348                21.0319                18.3578

                     10                     11                     12
                      A                      A                      A
 Frequencies --    946.3093               969.9057               999.9967
 Red. masses --      1.3354                 1.3980                 1.3697
 Frc consts  --      0.7046                 0.7749                 0.8070
 IR Inten    --      0.2660                 1.0870                 0.2188

                     13                     14                     15
                      A                      A                      A
 Frequencies --   1022.4907              1066.2030              1111.4455
 Red. masses --      6.5300                 3.7386                 2.2127
 Frc consts  --      4.0224                 2.5040                 1.6104
 IR Inten    --     51.5331                 0.1259                32.5703

                     16                     17                     18
                      A                      A                      A
 Frequencies --   1142.2771              1228.5364              1298.5926
 Red. masses --      1.4177                 1.4198                 7.1295
 Frc consts  --      1.0899                 1.2625                 7.0836
 IR Inten    --      4.4489                 1.6567                 0.2002

                     19                     20                     21
                      A                      A                      A
 Frequencies --   1360.0147              1456.3939              1504.3135
 Red. masses --      1.2834                 2.1909                 2.0297
 Frc consts  --      1.3986                 2.7380                 2.7061
 IR Inten    --      4.0294                31.0496                23.2579

                     22                     23                     24
                      A                      A                      A
 Frequencies --   1618.1347              1623.7504              3176.8154
 Red. masses --      5.9357                 5.6891                 1.0889
 Frc consts  --      9.1570                 8.8376                 6.4745
 IR Inten    --      3.7670                 9.5115                16.6411

                     25                     26                     27
                      A                      A                      A
 Frequencies --   3189.6013              3206.7074              3224.0929
 Red. masses --      1.0921                 1.0916                 1.0963
 Frc consts  --      6.5460                 6.6135                 6.7141
 IR Inten    --      6.6280                10.2533                 3.7965

 - Thermochemistry -
 -------------------
 Temperature   298.150 Kelvin.  Pressure   1.00000 Atm.
 Atom     1 has atomic number 35 and mass  78.91834

 Molecular mass:   156.95271 amu.
 Principal axes and moments of inertia in atomic units:
                           1         2         3
     Eigenvalues --   308.869561814.091092122.96066
           X            0.99992   0.01295  -0.00003
           Y           -0.01295   0.99992   0.00003
           Z            0.00004  -0.00003   1.00000
 This molecule is an asymmetric top.
 Rotational symmetry number  1.
 Rotational temperatures (Kelvin)      0.28042     0.04775     0.04080
 Rotational constants (GHZ):           5.84305     0.99485     0.85011
 Zero-point vibrational energy     207260.8 (Joules/Mol)
                                   49.53652 (Kcal/Mol)
 Warning -- explicit consideration of   5 degrees of freedom as
           vibrations may cause significant error
 Vibrational temperatures:    251.05   359.80   462.83   595.66   672.38
          (Kelvin)            898.39  1030.39  1038.14  1174.09  1361.53
                             1395.48  1438.77  1471.14  1534.03  1599.12
                             1643.48  1767.59  1868.39  1956.76  2095.43
                             2164.37  2328.13  2336.21  4570.73  4589.12
                             4613.74  4638.75

 Zero-point correction=                           0.078941 (Hartree/Particle)
 Thermal correction to Energy=                    0.084515
 Thermal correction to Enthalpy=                  0.085459
 Thermal correction to Gibbs Free Energy=         0.048121
 Sum of electronic and zero-point Energies=          -2819.337448
 Sum of electronic and thermal Energies=             -2819.331874
 Sum of electronic and thermal Enthalpies=           -2819.330930
 Sum of electronic and thermal Free Energies=        -2819.368269

                     E (Thermal)             CV                S
                      KCal/Mol        Cal/Mol-Kelvin    Cal/Mol-Kelvin
 Total                   53.034             20.308             78.586
 Electronic               0.000              0.000              0.000
 Translational            0.889              2.981             41.062
 Rotational               0.889              2.981             28.566
 Vibrational             51.257             14.347              8.958
 Vibration     1          0.627              1.874              2.387
 Vibration     2          0.663              1.763              1.730
 Vibration     3          0.707              1.632              1.302
 Vibration     4          0.778              1.440              0.913
 Vibration     5          0.825              1.323              0.745

 Optimization completed.
    -- Stationary point found.
 Normal termination of Gaussian 16 at Tue Sep 17 09:50:55 2024.

 ----------------------------------------------------------------------
 #p M062X/def2tzvp geom=check guess=read scf(xqc,tight) integral(grid=u
 ltrafine) scrf(SMD, solvent=1,4-Dioxane) polar prop=efg volume
 ----------------------------------------------------------------------

 ---
 spe
 ---
 Structure from the checkpoint file:  "smiles_00040_conf_0.chk"
 Charge =  0 Multiplicity = 1

 SCF Done:  E(RM062X) =  -2821.86767041     A.U. after   12 cycles

  Exact polarizability:     133.136       2.813      94.160       0.003      -0.001      53.003
 Approx polarizability:     141.385       1.757     112.697       0.002      -0.001      65.615

 Normal termination of Gaussian 16 at Tue Sep 17 09:55:25 2024.
 Gaussian 16:  ES64L-G16RevC.02  7-Dec-2021

 ----------------------------------------------------------------------
 #p M062X/def2tzvp geom=check guess=read scf(xqc,tight) integral(grid=u
 ltrafine) scrf(SMD, solvent=1,4-Dioxane) nmr=giao
 ----------------------------------------------------------------------

 ---
 spe
 ---
 Structure from the checkpoint file:  "smiles_00040_conf_0.chk"
 Charge =  0 Multiplicity = 1

                         Standard orientation:
 ---------------------------------------------------------------------
 Center     Atomic      Atomic             Coordinates (Angstroms)
 Number     Number       Type             X           Y           Z
 ---------------------------------------------------------------------
      1         35           0       -1.794080    0.004610   -0.000065
      2          6           0        0.111802    0.015185    0.000011
      3          6           0        0.809712    1.218468    0.000003
      4          6           0        2.201809    1.158967    0.000047
      5          6           0        2.819837   -0.091561    0.000092
      6          7           0        2.145350   -1.247947    0.000102
      7          6           0        0.810658   -1.192933    0.000074
      8          1           0        0.280827    2.164588   -0.000041
      9          1           0        2.794796    2.067525    0.000042
     10          1           0        3.904410   -0.169804    0.000125
     11          1           0        0.272396   -2.136782    0.000060
 ---------------------------------------------------------------------

 SCF Done:  E(RM062X) =  -2821.86767041     A.U. after    1 cycles

      1  Br   Isotropic =  2129.2174   Anisotropy =  1208.4026

      2  C    Isotropic =    26.9767   Anisotropy =   144.1201

      3  C    Isotropic =    22.0002   Anisotropy =   209.1475

      4  C    Isotropic =    39.8998   Anisotropy =   202.0420

      5  C    Isotropic =    11.9618   Anisotropy =   210.0739

      6  N    Isotropic =  -149.9869   Anisotropy =   649.7536

      7  C    Isotropic =     8.9692   Anisotropy =   180.3551

      8  H    Isotropic =    23.2639   Anisotropy =    10.7719

      9  H    Isotropic =    23.7838   Anisotropy =     6.5945

     10  H    Isotropic =    22.3959   Anisotropy =     6.9121

     11  H    Isotropic =    22.2862   Anisotropy =    11.7651

 The electronic state is 1-A.
 Alpha  occ. eigenvalues -- -485.38378 -63.36858 -57.18805 -57.18564 -57.18559
 Alpha  occ. eigenvalues --  -14.76417 -10.61246 -10.59198 -10.58624 -10.57602
 Alpha  occ. eigenvalues --  -10.56336  -9.03505  -6.85922  -6.85030  -6.85012
 Alpha  occ. eigenvalues --   -2.89299  -2.88975  -2.88953  -2.88122  -2.88121
 Alpha  occ. eigenvalues --   -1.06717  -0.94193  -0.89406  -0.83588  -0.73121
 Alpha  occ. eigenvalues --   -0.70944  -0.61115  -0.57050  -0.53573  -0.49373
 Alpha  occ. eigenvalues --   -0.49271  -0.48742  -0.43334  -0.40053  -0.36426
 Alpha  occ. eigenvalues --   -0.35257  -0.33740  -0.31063
 Alpha virt. eigenvalues --   -0.01118   0.00128   0.03098   0.09531   0.11333
 Alpha virt. eigenvalues --    0.12047   0.13799   0.14506   0.15928   0.16679
 Alpha virt. eigenvalues --    0.21308   0.22810   0.23001   0.23160   0.24674

 Mulliken charges:
               1
     1  Br  -0.095612
     2  C    0.046116
     3  C   -0.131796
     4  C   -0.157532
     5  C   -0.051584
     6  N   -0.245034
     7  C   -0.064915
     8  H    0.188069
     9  H    0.166575
    10  H    0.167259
    11  H    0.178455
 Sum of Mulliken charges =   0.00000

 Dipole moment (field-independent basis, Debye):
    X=              0.7634    Y=              2.3372    Z=             -0.0000  Tot=              2.4587
 Quadrupole moment (field-independent basis, Debye-Ang):
   XX=            -50.7184   YY=            -50.9025   ZZ=            -55.6373
   XY=              6.7272   XZ=              0.0000   YZ=              0.0001

 Normal termination of Gaussian 16 at Tue Sep 17 09:57:31 2024.
