 Gaussian 16, Revision C.02,

 ----------------------------------------------------------------------
 #p B3LYP/6-31G(d,p) EmpiricalDispersion=GD3BJ opt freq scf(xqc,tight)
 integral(grid=ultrafine)
 ----------------------------------------------------------------------

 ----------------------------------
 opt-freq conformers_unique/conf_aa
 ----------------------------------
 Symbolic Z-matrix:
 Charge =  0 Multiplicity = 1

 SCF Done:  E(RB3LYP) =  -2994.16323283     A.U. after   15 cycles
 SCF Done:  E(RB3LYP) =  -2994.16445826     A.U. after   12 cycles
 SCF Done:  E(RB3LYP) =  -2994.16447802     A.U. after    9 cycles
 SCF Done:  E(RB3LYP) =  -2994.16447903     A.U. after    8 cycles
 SCF Done:  E(RB3LYP) =  -2994.16447944     A.U. after    7 cycles
 Optimization completed.
    -- Stationary point found.
 Normal termination of Gaussian 16 at Tue Sep 17 09:52:59 2024.

 ----------------------------------------------------------------------
 #P Geom=AllCheck Guess=TCheck SCRF=Check GenChk RB3LYP/6-31G(d,p) Freq
 ----------------------------------------------------------------------

 Structure from the checkpoint file:  "smiles_00096_conf_0.chk"
 ----------------------------------
 opt-freq conformers_unique/conf_aa
 ----------------------------------
 Charge =  0 Multiplicity = 1

 SCF Done:  E(RB3LYP) =  -2994.16447944     A.U. after    1 cycles

                      1                      2                      3
                      A                      A                      A
 Frequencies --     73.8887                98.5765               151.3536
 Red. masses --      3.6297                 2.4098                 8.2904
 Frc consts  --      0.0117                 0.0138                 0.1119
 IR Inten    --      5.4474                 0.2159                 1.6923

                      4                      5                      6
                      A                      A                      A
 Frequencies --    184.8965               229.1163               291.8596
 Red. masses --      4.4940                 3.4691                13.2230
 Frc consts  --      0.0905                 0.1073                 0.6636
 IR Inten    --      0.0847                 2.9080                 3.9447

                      7                      8                      9
                      A                      A                      A
 Frequencies --    311.4351               451.9954               513.7330
 Red. masses --      6.7101                 3.8117                 3.1503
 Frc consts  --      0.3835                 0.4588                 0.4899
 IR Inten    --      2.0997                 2.8670                 0.1290

                     10                     11                     12
                      A                      A                      A
 Frequencies --    524.0060               555.5691               594.2683
 Red. masses --      4.5892                 7.3539                 2.7032
 Frc consts  --      0.7424                 1.3374                 0.5625
 IR Inten    --      5.7144                 4.4190                 0.1596

                     13                     14                     15
                      A                      A                      A
 Frequencies --    603.4346               669.0334               713.6309
 Red. masses --      5.6711                 7.0055                 2.1820
 Frc consts  --      1.2167                 1.8475                 0.6547
 IR Inten    --     16.9884                 4.2346                 1.8253

                     16                     17                     18
                      A                      A                      A
 Frequencies --    803.3982               812.6789               845.1151
 Red. masses --      1.2661                 6.0289                 5.2805
 Frc consts  --      0.4815                 2.3460                 2.2220
 IR Inten    --     39.1043                16.9471                11.2457

                     19                     20                     21
                      A                      A                      A
 Frequencies --    854.5437               945.1663               996.2871
 Red. masses --      1.9908                 1.3595                 1.4304
 Frc consts  --      0.8565                 0.7156                 0.8365
 IR Inten    --      0.0410                 0.0000                 0.8502

                     22                     23                     24
                      A                      A                      A
 Frequencies --    999.3112              1016.3544              1045.3279
 Red. masses --      2.4216                 1.9628                 5.6573
 Frc consts  --      1.4248                 1.1946                 3.6422
 IR Inten    --      2.6003                 0.0990                48.5099

                     25                     26                     27
                      A                      A                      A
 Frequencies --   1080.8286              1139.6644              1162.3518
 Red. masses --      2.0075                 2.8768                 1.2254
 Frc consts  --      1.3817                 2.2014                 0.9755
 IR Inten    --      2.7390                61.5284                 0.1582

                     28                     29                     30
                      A                      A                      A
 Frequencies --   1187.0522              1225.5732              1237.2633
 Red. masses --      1.4802                 1.8445                 1.1123
 Frc consts  --      1.2289                 1.6323                 1.0032
 IR Inten    --      2.2253                 6.1825                 0.1449

                     31                     32                     33
                      A                      A                      A
 Frequencies --   1274.9034              1285.3528              1315.9685
 Red. masses --      1.6606                 2.2531                 2.0956
 Frc consts  --      1.5903                 2.1932                 2.1383
 IR Inten    --     13.8224                70.5412                15.7495

                     34                     35                     36
                      A                      A                      A
 Frequencies --   1378.8746              1459.1565              1474.6125
 Red. masses --      4.8568                 1.2454                 1.9567
 Frc consts  --      5.4407                 1.5623                 2.5069
 IR Inten    --     21.8014                 0.4753                15.2782

                     37                     38                     39
                      A                      A                      A
 Frequencies --   1498.9719              1499.4955              1625.8598
 Red. masses --      1.1770                 2.6783                 6.9123
 Frc consts  --      1.5582                 3.5481                10.7656
 IR Inten    --      2.9147                33.5105                 9.8879

                     40                     41                     42
                      A                      A                      A
 Frequencies --   1651.8111              1820.5237              3061.9517
 Red. masses --      7.5408                12.8345                 1.0605
 Frc consts  --     12.1223                25.0624                 5.8581
 IR Inten    --     39.0500               298.2490                11.0647

                     43                     44                     45
                      A                      A                      A
 Frequencies --   3080.0869              3093.2491              3122.1710
 Red. masses --      1.0615                 1.1048                 1.1034
 Frc consts  --      5.9335                 6.2281                 6.3374
 IR Inten    --      9.1912                 4.5821                 7.9696

                     46                     47                     48
                      A                      A                      A
 Frequencies --   3197.4882              3215.1076              3221.7008
 Red. masses --      1.0874                 1.0923                 1.0960
 Frc consts  --      6.5502                 6.6523                 6.7022
 IR Inten    --      4.4171                 2.4889                 7.4648

 - Thermochemistry -
 -------------------
 Temperature   298.150 Kelvin.  Pressure   1.00000 Atm.
 Atom     1 has atomic number  8 and mass  15.99491

 Molecular mass:   209.96803 amu.
 Principal axes and moments of inertia in atomic units:
                           1         2         3
     Eigenvalues --  1130.642933494.759564603.26721
           X            0.99964   0.02677  -0.00004
           Y           -0.02677   0.99964   0.00011
           Z            0.00005  -0.00011   1.00000
 This molecule is an asymmetric top.
 Rotational symmetry number  1.
 Warning -- assumption of classical behavior for rotation
           may cause significant error
 Rotational temperatures (Kelvin)      0.07661     0.02478     0.01882
 Rotational constants (GHZ):           1.59621     0.51641     0.39206
 Zero-point vibrational energy     356457.3 (Joules/Mol)
                                   85.19533 (Kcal/Mol)
 Warning -- explicit consideration of  13 degrees of freedom as
           vibrations may cause significant error
 Vibrational temperatures:    106.31   141.83   217.76   266.02   329.65
          (Kelvin)            419.92   448.09   650.32   739.15   753.93
                              799.34   855.02   868.21   962.59  1026.76
                             1155.91  1169.26  1215.93  1229.50  1359.88
                             1433.43  1437.79  1462.31  1503.99  1555.07
                             1639.72  1672.37  1707.90  1763.33  1780.15
                             1834.30  1849.34  1893.39  1983.89  2099.40
                             2121.64  2156.69  2157.44  2339.25  2376.59
                             2619.33  4405.47  4431.56  4450.50  4492.11
                             4600.47  4625.82  4635.31

 Zero-point correction=                           0.135767 (Hartree/Particle)
 Thermal correction to Energy=                    0.144779
 Thermal correction to Enthalpy=                  0.145723
 Thermal correction to Gibbs Free Energy=         0.100050
 Sum of electronic and zero-point Energies=          -2994.028712
 Sum of electronic and thermal Energies=             -2994.019700
 Sum of electronic and thermal Enthalpies=           -2994.018756
 Sum of electronic and thermal Free Energies=        -2994.064430

                     E (Thermal)             CV                S
                      KCal/Mol        Cal/Mol-Kelvin    Cal/Mol-Kelvin
 Total                   90.850             34.113             96.128
 Electronic               0.000              0.000              0.000
 Translational            0.889              2.981             41.929
 Rotational               0.889              2.981             31.276
 Vibrational             89.073             28.151             22.923
 Vibration     1          0.599              1.966              4.047
 Vibration     2          0.604              1.950              3.482
 Vibration     3          0.619              1.901              2.655
 Vibration     4          0.631              1.860              2.278
 Vibration     5          0.652              1.797              1.886
 Vibration     6          0.687              1.689              1.463
 Vibration     7          0.700              1.652              1.355
 Vibration     8          0.811              1.356              0.790
 Vibration     9          0.869              1.220              0.625
 Vibration    10          0.879              1.197              0.601
 Vibration    11          0.911              1.128              0.533
 Vibration    12          0.952              1.044              0.460
 Vibration    13          0.962              1.025              0.444

 Optimization completed.
    -- Stationary point found.
 Normal termination of Gaussian 16 at Tue Sep 17 09:54:29 2024.

 ----------------------------------------------------------------------
 #p M062X/def2tzvp geom=check guess=read scf(xqc,tight) integral(grid=u
 ltrafine) scrf(SMD, solvent=1,4-Dioxane) polar prop=efg volume
 ----------------------------------------------------------------------

 ---
 spe
 ---
 Structure from the checkpoint file:  "smiles_00096_conf_0.chk"
 Charge =  0 Multiplicity = 1

 SCF Done:  E(RM062X) =  -2996.59275321     A.U. after   12 cycles

  Exact polarizability:     185.348      -2.102     160.396       0.006      -0.009      79.941
 Approx polarizability:     200.273      -6.825     173.336       0.008      -0.007     101.615

 Normal termination of Gaussian 16 at Tue Sep 17 10:39:44 2024.
 Gaussian 16:  ES64L-G16RevC.02  7-Dec-2021

 ----------------------------------------------------------------------
 #p M062X/def2tzvp geom=check guess=read scf(xqc,tight) integral(grid=u
 ltrafine) scrf(SMD, solvent=1,4-Dioxane) nmr=giao
 ----------------------------------------------------------------------

 ---
 spe
 ---
 Structure from the checkpoint file:  "smiles_00096_conf_0.chk"
 Charge =  0 Multiplicity = 1

                         Standard orientation:
 ---------------------------------------------------------------------
 Center     Atomic      Atomic             Coordinates (Angstroms)
 Number     Number       Type             X           Y           Z
 ---------------------------------------------------------------------
      1          8           0       -3.918898   -0.229815   -0.000414
      2          6           0       -2.734777   -0.502562   -0.000077
      3          6           0       -2.127528   -1.914881    0.000504
      4          6           0       -0.592873   -1.729614   -0.000007
      5          6           0       -0.393237   -0.232677   -0.000013
      6          6           0        0.789415    0.498155   -0.000005
      7         35           0        2.464168   -0.420226    0.000128
      8          6           0        0.758279    1.891754   -0.000104
      9          6           0       -0.470343    2.566592   -0.000234
     10          6           0       -1.667352    1.855741   -0.000259
     11          6           0       -1.606018    0.462272   -0.000127
     12          1           0       -2.490685   -2.456443    0.879010
     13          1           0       -2.491311   -2.457675   -0.876963
     14          1           0       -0.113399   -2.180248    0.875372
     15          1           0       -0.114113   -2.180042   -0.875893
     16          1           0        1.688850    2.447723   -0.000083
     17          1           0       -0.475697    3.651794   -0.000314
     18          1           0       -2.631720    2.352645   -0.000357
 ---------------------------------------------------------------------

 SCF Done:  E(RM062X) =  -2996.59275321     A.U. after    1 cycles

      1  O    Isotropic =  -364.2751   Anisotropy =  1093.7939

      2  C    Isotropic =   -50.6655   Anisotropy =   163.3551

      3  C    Isotropic =   144.8324   Anisotropy =    42.9406

      4  C    Isotropic =   155.8891   Anisotropy =    26.3930

      5  C    Isotropic =     2.1800   Anisotropy =   214.8765

      6  C    Isotropic =    26.1524   Anisotropy =   130.4043

      7  Br   Isotropic =  2158.9088   Anisotropy =  1063.9874

      8  C    Isotropic =    24.4250   Anisotropy =   191.7137

      9  C    Isotropic =    34.6964   Anisotropy =   209.3754

     10  C    Isotropic =    40.3729   Anisotropy =   220.1425

     11  C    Isotropic =    22.4318   Anisotropy =   193.7268

     12  H    Isotropic =    29.1318   Anisotropy =     8.0136

     13  H    Isotropic =    29.1314   Anisotropy =     8.0112

     14  H    Isotropic =    28.6300   Anisotropy =     6.6243

     15  H    Isotropic =    28.6306   Anisotropy =     6.6275

     16  H    Isotropic =    23.3577   Anisotropy =    10.9851

     17  H    Isotropic =    23.6778   Anisotropy =     5.8949

     18  H    Isotropic =    23.2204   Anisotropy =     6.1431

 The electronic state is 1-A.
 Alpha  occ. eigenvalues -- -485.38277 -63.36748 -57.18692 -57.18459 -57.18451
 Alpha  occ. eigenvalues --  -19.62185 -10.63463 -10.61160 -10.57522 -10.56981
 Alpha  occ. eigenvalues --  -10.56248 -10.56093 -10.55821 -10.55515 -10.54821
 Alpha  occ. eigenvalues --   -9.03384  -6.85786  -6.84921  -6.84893  -2.89163
 Alpha  occ. eigenvalues --   -2.88852  -2.88820  -2.88015  -2.88014  -1.16720
 Alpha  occ. eigenvalues --   -1.00170  -0.92869  -0.90855  -0.83797  -0.82398
 Alpha  occ. eigenvalues --   -0.77475  -0.70933  -0.68136  -0.62679  -0.57628
 Alpha  occ. eigenvalues --   -0.56213  -0.55373  -0.53951  -0.50619  -0.49497
 Alpha  occ. eigenvalues --   -0.47516  -0.47459  -0.46867  -0.44875  -0.43223
 Alpha  occ. eigenvalues --   -0.41310  -0.41196  -0.38563  -0.35854  -0.32575
 Alpha  occ. eigenvalues --   -0.32123  -0.30625
 Alpha virt. eigenvalues --   -0.03652   0.00411   0.03323   0.06919   0.07045
 Alpha virt. eigenvalues --    0.09754   0.10438   0.11731   0.12746   0.13140
 Alpha virt. eigenvalues --    0.14899   0.16875   0.17369   0.17862   0.18582

 Mulliken charges:
               1
     1  O   -0.322904
     2  C    0.197538
     3  C   -0.282251
     4  C   -0.316454
     5  C    0.081010
     6  C   -0.039772
     7  Br  -0.101645
     8  C   -0.144451
     9  C   -0.135404
    10  C   -0.220645
    11  C    0.055316
    12  H    0.172234
    13  H    0.172223
    14  H    0.178113
    15  H    0.178110
    16  H    0.180108
    17  H    0.171269
    18  H    0.177605
 Sum of Mulliken charges =  -0.00000

 Dipole moment (field-independent basis, Debye):
    X=              2.1488    Y=              0.1340    Z=              0.0008  Tot=              2.1530
 Quadrupole moment (field-independent basis, Debye-Ang):
   XX=            -94.6115   YY=            -63.7954   ZZ=            -77.3188
   XY=              2.0284   XZ=             -0.0037   YZ=             -0.0014

 Normal termination of Gaussian 16 at Tue Sep 17 10:56:35 2024.
