 Gaussian 16, Revision C.02,

 ----------------------------------------------------------------------
 #p B3LYP/6-31G(d,p) EmpiricalDispersion=GD3BJ opt freq scf(xqc,tight)
 integral(grid=ultrafine)
 ----------------------------------------------------------------------

 ----------------------------------
 opt-freq conformers_unique/conf_aa
 ----------------------------------
 Symbolic Z-matrix:
 Charge =  0 Multiplicity = 1

 SCF Done:  E(RB3LYP) =  -3233.09525963     A.U. after   14 cycles
 SCF Done:  E(RB3LYP) =  -3233.09675317     A.U. after   11 cycles
 SCF Done:  E(RB3LYP) =  -3233.09709118     A.U. after   11 cycles
 SCF Done:  E(RB3LYP) =  -3233.09741410     A.U. after   11 cycles
 SCF Done:  E(RB3LYP) =  -3233.09752547     A.U. after   10 cycles
 SCF Done:  E(RB3LYP) =  -3233.09756244     A.U. after    9 cycles
 SCF Done:  E(RB3LYP) =  -3233.09756873     A.U. after    9 cycles
 SCF Done:  E(RB3LYP) =  -3233.09756904     A.U. after    8 cycles
 SCF Done:  E(RB3LYP) =  -3233.09756925     A.U. after    7 cycles
 SCF Done:  E(RB3LYP) =  -3233.09756939     A.U. after    6 cycles
 SCF Done:  E(RB3LYP) =  -3233.09756943     A.U. after    6 cycles
 SCF Done:  E(RB3LYP) =  -3233.09756946     A.U. after    7 cycles
 Optimization completed.
    -- Stationary point found.
 Normal termination of Gaussian 16 at Tue Sep 17 09:48:16 2024.

 ----------------------------------------------------------------------
 #P Geom=AllCheck Guess=TCheck SCRF=Check GenChk RB3LYP/6-31G(d,p) Freq
 ----------------------------------------------------------------------

 Structure from the checkpoint file:  "smiles_00060_conf_0.chk"
 ----------------------------------
 opt-freq conformers_unique/conf_aa
 ----------------------------------
 Charge =  0 Multiplicity = 1

 SCF Done:  E(RB3LYP) =  -3233.09756946     A.U. after    1 cycles

                      1                      2                      3
                      A                      A                      A
 Frequencies --     35.4483                61.6847                87.0202
 Red. masses --      5.3775                 3.4873                 3.3474
 Frc consts  --      0.0040                 0.0078                 0.0149
 IR Inten    --      0.0536                 0.0346                 0.1903

                      4                      5                      6
                      A                      A                      A
 Frequencies --    115.6586               143.7009               177.4943
 Red. masses --     12.3736                 2.8372                 8.7930
 Frc consts  --      0.0975                 0.0345                 0.1632
 IR Inten    --      0.1129                 0.0744                 0.3389

                      7                      8                      9
                      A                      A                      A
 Frequencies --    199.4868               238.2524               260.8666
 Red. masses --      5.4605                 5.9637                 7.2371
 Frc consts  --      0.1280                 0.1995                 0.2902
 IR Inten    --      0.5002                 0.1104                 1.3610

                     10                     11                     12
                      A                      A                      A
 Frequencies --    278.5822               308.6609               349.8555
 Red. masses --     10.9565                 5.2834                 6.8905
 Frc consts  --      0.5010                 0.2966                 0.4969
 IR Inten    --      1.2169                 0.8690                 0.9945

                     13                     14                     15
                      A                      A                      A
 Frequencies --    375.7247               455.5157               489.3793
 Red. masses --      7.6514                 3.8128                 4.0808
 Frc consts  --      0.6364                 0.4661                 0.5758
 IR Inten    --      0.3299                 2.6509                 1.5875

                     16                     17                     18
                      A                      A                      A
 Frequencies --    543.6183               594.7855               609.2993
 Red. masses --      5.0667                 6.5006                 4.3906
 Frc consts  --      0.8822                 1.3550                 0.9604
 IR Inten    --      1.0524                 1.9985                 2.8850

                     19                     20                     21
                      A                      A                      A
 Frequencies --    629.3760               670.0579               684.0779
 Red. masses --      3.7713                 2.6745                 6.6535
 Frc consts  --      0.8802                 0.7075                 1.8345
 IR Inten    --      0.7649                 2.8649                 0.4758

                     22                     23                     24
                      A                      A                      A
 Frequencies --    770.4647               793.4514               806.5536
 Red. masses --      1.7852                 1.3426                 3.4243
 Frc consts  --      0.6244                 0.4980                 1.3124
 IR Inten    --     26.0607                 2.7688                39.9817

                     25                     26                     27
                      A                      A                      A
 Frequencies --    844.7816               853.5431               868.7476
 Red. masses --      1.5038                 1.3611                 9.5880
 Frc consts  --      0.6323                 0.5843                 4.2635
 IR Inten    --     46.2167                 0.2576                52.7410

                     28                     29                     30
                      A                      A                      A
 Frequencies --    912.0639               931.9215               963.7589
 Red. masses --      2.1664                 2.5155                 1.4980
 Frc consts  --      1.0618                 1.2872                 0.8198
 IR Inten    --      2.2763                 1.2838                 4.5340

                     31                     32                     33
                      A                      A                      A
 Frequencies --    974.2728              1023.1865              1078.7144
 Red. masses --      2.3839                 3.0645                 2.0413
 Frc consts  --      1.3332                 1.8902                 1.3995
 IR Inten    --      3.2959                28.0266                 7.1323

                     34                     35                     36
                      A                      A                      A
 Frequencies --   1104.1949              1159.9302              1187.3266
 Red. masses --      2.6152                 2.3591                 3.3194
 Frc consts  --      1.8787                 1.8701                 2.7570
 IR Inten    --     29.3328                 2.3665               215.4889

                     37                     38                     39
                      A                      A                      A
 Frequencies --   1206.2530              1218.7990              1252.8707
 Red. masses --      1.3970                 1.7290                 1.3290
 Frc consts  --      1.1977                 1.5132                 1.2291
 IR Inten    --     12.9019               104.8331                20.7579

                     40                     41                     42
                      A                      A                      A
 Frequencies --   1256.9735              1270.1653              1277.9407
 Red. masses --      1.2093                 1.3131                 2.3304
 Frc consts  --      1.1258                 1.2481                 2.2424
 IR Inten    --      0.9350                 1.2123                41.3467

                     43                     44                     45
                      A                      A                      A
 Frequencies --   1287.9348              1317.2661              1341.9660
 Red. masses --      1.5824                 1.5035                 5.7737
 Frc consts  --      1.5465                 1.5371                 6.1261
 IR Inten    --     16.0257                 4.3429                13.2686

                     46                     47                     48
                      A                      A                      A
 Frequencies --   1370.3192              1400.0270              1486.6113
 Red. masses --      7.4170                 1.3818                 1.1843
 Frc consts  --      8.2058                 1.5957                 1.5421
 IR Inten    --     66.9836                77.5724                 1.5161

                     49                     50                     51
                      A                      A                      A
 Frequencies --   1488.0212              1501.1712              1525.4095
 Red. masses --      3.8574                 1.0899                 1.1527
 Frc consts  --      5.0323                 1.4471                 1.5803
 IR Inten    --     25.0344                 4.0222                18.4527

                     52                     53                     54
                      A                      A                      A
 Frequencies --   1545.8578              1637.1689              1674.6578
 Red. masses --      4.9116                 9.3023                 8.2917
 Frc consts  --      6.9154                14.6902                13.7008
 IR Inten    --    392.1605               102.8410                93.8292

                     55                     56                     57
                      A                      A                      A
 Frequencies --   3040.7745              3076.0180              3080.9395
 Red. masses --      1.0858                 1.0575                 1.0583
 Frc consts  --      5.9153                 5.8953                 5.9189
 IR Inten    --     22.8213                35.8285                31.9906

                     58                     59                     60
                      A                      A                      A
 Frequencies --   3083.9804              3127.8781              3136.5538
 Red. masses --      1.0625                 1.1085                 1.1094
 Frc consts  --      5.9538                 6.3895                 6.4303
 IR Inten    --     13.3859                 7.4492                18.4089

                     61                     62                     63
                      A                      A                      A
 Frequencies --   3147.1829              3240.6670              3261.0345
 Red. masses --      1.1083                 1.0924                 1.0906
 Frc consts  --      6.4676                 6.7596                 6.8335
 IR Inten    --     44.4703                 0.4533                 1.1618

 - Thermochemistry -
 -------------------
 Temperature   298.150 Kelvin.  Pressure   1.00000 Atm.
 Atom     1 has atomic number  9 and mass  18.99840

 Molecular mass:   261.98048 amu.
 Principal axes and moments of inertia in atomic units:
                           1         2         3
     Eigenvalues --  2617.542366051.525568481.37134
           X            0.99912  -0.04186   0.00152
           Y            0.04187   0.99910  -0.00633
           Z           -0.00125   0.00639   0.99998
 This molecule is an asymmetric top.
 Rotational symmetry number  1.
 Warning -- assumption of classical behavior for rotation
           may cause significant error
 Rotational temperatures (Kelvin)      0.03309     0.01431     0.01021
 Rotational constants (GHZ):           0.68948     0.29823     0.21279
 Zero-point vibrational energy     447618.1 (Joules/Mol)
                                  106.98329 (Kcal/Mol)
 Warning -- explicit consideration of  18 degrees of freedom as
           vibrations may cause significant error
 Vibrational temperatures:     51.00    88.75   125.20   166.41   206.75
          (Kelvin)            255.37   287.02   342.79   375.33   400.82
                              444.09   503.36   540.58   655.39   704.11
                              782.15   855.76   876.65   905.53   964.06
                              984.24  1108.53  1141.60  1160.45  1215.45
                             1228.06  1249.93  1312.26  1340.83  1386.63
                             1401.76  1472.14  1552.03  1588.69  1668.88
                             1708.30  1735.53  1753.58  1802.60  1808.50
                             1827.48  1838.67  1853.05  1895.25  1930.79
                             1971.58  2014.33  2138.90  2140.93  2159.85
                             2194.72  2224.14  2355.52  2409.46  4375.00
                             4425.70  4432.78  4437.16  4500.32  4512.80
                             4528.09  4662.60  4691.90

 Zero-point correction=                           0.170489 (Hartree/Particle)
 Thermal correction to Energy=                    0.183095
 Thermal correction to Enthalpy=                  0.184039
 Thermal correction to Gibbs Free Energy=         0.129493
 Sum of electronic and zero-point Energies=          -3232.927081
 Sum of electronic and thermal Energies=             -3232.914475
 Sum of electronic and thermal Enthalpies=           -3232.913531
 Sum of electronic and thermal Free Energies=        -3232.968076

                     E (Thermal)             CV                S
                      KCal/Mol        Cal/Mol-Kelvin    Cal/Mol-Kelvin
 Total                  114.894             46.963            114.801
 Electronic               0.000              0.000              0.000
 Translational            0.889              2.981             42.589
 Rotational               0.889              2.981             33.263
 Vibrational            113.116             41.001             38.949
 Vibration     1          0.594              1.982              5.498
 Vibration     2          0.597              1.973              4.403
 Vibration     3          0.601              1.958              3.726
 Vibration     4          0.608              1.936              3.172
 Vibration     5          0.616              1.909              2.754
 Vibration     6          0.628              1.870              2.355
 Vibration     7          0.638              1.841              2.138
 Vibration     8          0.656              1.782              1.816
 Vibration     9          0.669              1.744              1.656
 Vibration    10          0.679              1.713              1.542
 Vibration    11          0.698              1.657              1.370
 Vibration    12          0.727              1.576              1.167
 Vibration    13          0.747              1.522              1.056
 Vibration    14          0.814              1.349              0.779
 Vibration    15          0.845              1.274              0.685
 Vibration    16          0.899              1.154              0.558
 Vibration    17          0.952              1.043              0.459
 Vibration    18          0.968              1.012              0.434

 Optimization completed.
    -- Stationary point found.
 Normal termination of Gaussian 16 at Tue Sep 17 09:50:48 2024.

 ----------------------------------------------------------------------
 #p M062X/def2tzvp geom=check guess=read scf(xqc,tight) integral(grid=u
 ltrafine) scrf(SMD, solvent=1,4-Dioxane) polar prop=efg volume
 ----------------------------------------------------------------------

 ---
 spe
 ---
 Structure from the checkpoint file:  "smiles_00060_conf_0.chk"
 Charge =  0 Multiplicity = 1

 SCF Done:  E(RM062X) =  -3235.54725879     A.U. after   12 cycles

  Exact polarizability:     195.804       4.792     174.656      -3.848       0.021     101.962
 Approx polarizability:     194.963       7.061     194.889      -4.882       2.452     122.803

 Normal termination of Gaussian 16 at Tue Sep 17 11:08:14 2024.
 Gaussian 16:  ES64L-G16RevC.02  7-Dec-2021

 ----------------------------------------------------------------------
 #p M062X/def2tzvp geom=check guess=read scf(xqc,tight) integral(grid=u
 ltrafine) scrf(SMD, solvent=1,4-Dioxane) nmr=giao
 ----------------------------------------------------------------------

 ---
 spe
 ---
 Structure from the checkpoint file:  "smiles_00060_conf_0.chk"
 Charge =  0 Multiplicity = 1

                         Standard orientation:
 ---------------------------------------------------------------------
 Center     Atomic      Atomic             Coordinates (Angstroms)
 Number     Number       Type             X           Y           Z
 ---------------------------------------------------------------------
      1          9           0       -1.932697    3.270207    0.188388
      2          6           0       -1.227937    2.133280    0.077618
      3          6           0        0.149786    2.177469   -0.019449
      4          6           0        0.865954    0.976912   -0.135890
      5          8           0        2.216820    1.103408   -0.226891
      6          6           0        2.998700   -0.069620   -0.407106
      7          6           0        3.247685   -0.993977    0.811004
      8          6           0        4.733741   -1.069902    0.368023
      9          6           0        4.506595    0.214882   -0.474672
     10          6           0        0.189222   -0.246987   -0.150885
     11          6           0       -1.203757   -0.256783   -0.053076
     12         35           0       -2.141545   -1.907086   -0.068516
     13          6           0       -1.924923    0.922726    0.061303
     14          9           0       -3.261474    0.929039    0.158185
     15          1           0        0.669749    3.126970   -0.008632
     16          1           0        2.638959   -0.624989   -1.282606
     17          1           0        3.128879   -0.425572    1.737636
     18          1           0        2.679129   -1.924222    0.884593
     19          1           0        4.927541   -1.943250   -0.260529
     20          1           0        5.492905   -1.027604    1.151295
     21          1           0        4.734970    1.116779    0.099592
     22          1           0        4.968518    0.287912   -1.461655
     23          1           0        0.716014   -1.186481   -0.226868
 ---------------------------------------------------------------------

 SCF Done:  E(RM062X) =  -3235.54725879     A.U. after    1 cycles

      1  F    Isotropic =   313.1919   Anisotropy =   152.5366

      2  C    Isotropic =    11.6359   Anisotropy =   115.2455

      3  C    Isotropic =    60.8961   Anisotropy =   140.5123

      4  C    Isotropic =     9.5594   Anisotropy =   156.6261

      5  O    Isotropic =   164.1941   Anisotropy =    80.3503

      6  C    Isotropic =   111.3101   Anisotropy =    67.1446

      7  C    Isotropic =   153.6927   Anisotropy =    30.6980

      8  C    Isotropic =   174.0407   Anisotropy =    17.2405

      9  C    Isotropic =   155.8184   Anisotropy =    33.5267

     10  C    Isotropic =    56.6553   Anisotropy =   142.7953

     11  C    Isotropic =    39.7197   Anisotropy =   130.1241

     12  Br   Isotropic =  2156.5658   Anisotropy =  1079.0736

     13  C    Isotropic =    22.2683   Anisotropy =   104.1451

     14  F    Isotropic =   323.7134   Anisotropy =   134.6791

     15  H    Isotropic =    24.5345   Anisotropy =     6.8800

     16  H    Isotropic =    27.3812   Anisotropy =     3.7276

     17  H    Isotropic =    30.0013   Anisotropy =     4.1796

     18  H    Isotropic =    29.3707   Anisotropy =     8.0857

     19  H    Isotropic =    30.2265   Anisotropy =     8.9772

     20  H    Isotropic =    30.0818   Anisotropy =    10.7671

     21  H    Isotropic =    29.5893   Anisotropy =     6.3146

     22  H    Isotropic =    29.4874   Anisotropy =     9.6857

     23  H    Isotropic =    24.6651   Anisotropy =    14.2784

 The electronic state is 1-A.
 Alpha  occ. eigenvalues -- -485.38839 -63.37305 -57.19261 -57.19010 -57.19000
 Alpha  occ. eigenvalues --  -25.27481 -25.27466 -19.66823 -10.65163 -10.64610
 Alpha  occ. eigenvalues --  -10.62866 -10.62158 -10.60328 -10.56563 -10.56196
 Alpha  occ. eigenvalues --  -10.54081 -10.54046 -10.53916  -9.03947  -6.86394
 Alpha  occ. eigenvalues --   -6.85462  -6.85427  -2.89770  -2.89437  -2.89399
 Alpha  occ. eigenvalues --   -2.88532  -2.88531  -1.39670  -1.38283  -1.20422
 Alpha  occ. eigenvalues --   -0.99780  -0.95658  -0.91565  -0.86446  -0.83984
 Alpha  occ. eigenvalues --   -0.77421  -0.76037  -0.73152  -0.70719  -0.65904
 Alpha  occ. eigenvalues --   -0.65346  -0.63406  -0.62194  -0.60107  -0.59262
 Alpha  occ. eigenvalues --   -0.56964  -0.56700  -0.55052  -0.53674  -0.52037
 Alpha  occ. eigenvalues --   -0.50998  -0.49464  -0.48634  -0.46014  -0.45794
 Alpha  occ. eigenvalues --   -0.44589  -0.42861  -0.40656  -0.40066  -0.38555
 Alpha  occ. eigenvalues --   -0.37574  -0.36254  -0.36121  -0.31435  -0.28938
 Alpha virt. eigenvalues --   -0.00213   0.02032   0.02391   0.06721   0.08385
 Alpha virt. eigenvalues --    0.09650   0.09864   0.10068   0.11693   0.13050
 Alpha virt. eigenvalues --    0.13523   0.14793   0.16206   0.16881   0.17684

 Mulliken charges:
               1
     1  F   -0.193440
     2  C    0.257139
     3  C   -0.315079
     4  C    0.298027
     5  O   -0.270912
     6  C   -0.070031
     7  C   -0.279558
     8  C   -0.265725
     9  C   -0.265366
    10  C   -0.232612
    11  C   -0.049546
    12  Br  -0.063845
    13  C    0.180350
    14  F   -0.187738
    15  H    0.188050
    16  H    0.164276
    17  H    0.159853
    18  H    0.148355
    19  H    0.151990
    20  H    0.144708
    21  H    0.157876
    22  H    0.144198
    23  H    0.199029
 Sum of Mulliken charges =  -0.00000

 Dipole moment (field-independent basis, Debye):
    X=              4.4823    Y=             -1.4136    Z=             -0.2354  Tot=              4.7058
 Quadrupole moment (field-independent basis, Debye-Ang):
   XX=            -92.2224   YY=            -93.8057   ZZ=            -93.1497
   XY=              0.5775   XZ=              0.1374   YZ=              0.5251

 Normal termination of Gaussian 16 at Tue Sep 17 11:36:07 2024.
