 Gaussian 16, Revision C.02,

 ----------------------------------------------------------------------
 #p B3LYP/6-31G(d,p) EmpiricalDispersion=GD3BJ opt freq scf(xqc,tight)
 integral(grid=ultrafine)
 ----------------------------------------------------------------------

 ----------------------------------
 opt-freq conformers_unique/conf_af
 ----------------------------------
 Symbolic Z-matrix:
 Charge =  0 Multiplicity = 1

 SCF Done:  E(RB3LYP) =  -3630.84481454     A.U. after   15 cycles
 SCF Done:  E(RB3LYP) =  -3630.84719450     A.U. after   12 cycles
 SCF Done:  E(RB3LYP) =  -3630.84727597     A.U. after   11 cycles
 SCF Done:  E(RB3LYP) =  -3630.84724566     A.U. after   12 cycles
 SCF Done:  E(RB3LYP) =  -3630.84731019     A.U. after   11 cycles
 SCF Done:  E(RB3LYP) =  -3630.84731443     A.U. after   10 cycles
 SCF Done:  E(RB3LYP) =  -3630.84731519     A.U. after    9 cycles
 SCF Done:  E(RB3LYP) =  -3630.84731568     A.U. after    9 cycles
 SCF Done:  E(RB3LYP) =  -3630.84731738     A.U. after   11 cycles
 SCF Done:  E(RB3LYP) =  -3630.84732091     A.U. after   12 cycles
 SCF Done:  E(RB3LYP) =  -3630.84738601     A.U. after   12 cycles
 SCF Done:  E(RB3LYP) =  -3630.84739125     A.U. after   12 cycles
 SCF Done:  E(RB3LYP) =  -3630.84740010     A.U. after   11 cycles
 SCF Done:  E(RB3LYP) =  -3630.84740038     A.U. after   10 cycles
 SCF Done:  E(RB3LYP) =  -3630.84740086     A.U. after   10 cycles
 SCF Done:  E(RB3LYP) =  -3630.84740089     A.U. after    8 cycles
 SCF Done:  E(RB3LYP) =  -3630.84740090     A.U. after    7 cycles
 Optimization completed.
    -- Stationary point found.
 Normal termination of Gaussian 16 at Tue Sep 17 09:50:52 2024.

 ----------------------------------------------------------------------
 #P Geom=AllCheck Guess=TCheck SCRF=Check GenChk RB3LYP/6-31G(d,p) Freq
 ----------------------------------------------------------------------

 Structure from the checkpoint file:  "smiles_00068_conf_5.chk"
 ----------------------------------
 opt-freq conformers_unique/conf_af
 ----------------------------------
 Charge =  0 Multiplicity = 1

 SCF Done:  E(RB3LYP) =  -3630.84740090     A.U. after    1 cycles

                      1                      2                      3
                      A                      A                      A
 Frequencies --     14.9100                40.9202                56.4785
 Red. masses --     17.2368                17.1892                17.4623
 Frc consts  --      0.0023                 0.0170                 0.0328
 IR Inten    --      0.4141                 0.2121                 0.5885

                      4                      5                      6
                      A                      A                      A
 Frequencies --    112.8542               123.0784               155.4960
 Red. masses --     14.9674                10.7689                15.1862
 Frc consts  --      0.1123                 0.0961                 0.2163
 IR Inten    --      3.7936                 3.5582                 0.5474

                      7                      8                      9
                      A                      A                      A
 Frequencies --    186.5970               212.4108               275.5228
 Red. masses --      5.1240                 5.2464                15.2880
 Frc consts  --      0.1051                 0.1395                 0.6838
 IR Inten    --      1.1566                 1.5273                 0.3154

                     10                     11                     12
                      A                      A                      A
 Frequencies --    300.7599               321.0578               361.9523
 Red. masses --      9.7516                15.0926                 9.3965
 Frc consts  --      0.5197                 0.9166                 0.7253
 IR Inten    --      2.9687                 1.8161                 0.2254

                     13                     14                     15
                      A                      A                      A
 Frequencies --    404.9355               444.8316               455.0480
 Red. masses --      6.4363                12.5261                16.1649
 Frc consts  --      0.6218                 1.4603                 1.9721
 IR Inten    --      3.7172                 1.9366                 4.3242

                     16                     17                     18
                      A                      A                      A
 Frequencies --    466.1364               529.4107               532.9588
 Red. masses --      8.5813                 8.8335                17.8458
 Frc consts  --      1.0986                 1.4587                 2.9866
 IR Inten    --      0.2177                 1.3174                 1.5105

                     19                     20                     21
                      A                      A                      A
 Frequencies --    571.4807               585.8071               621.5418
 Red. masses --      8.7819                 7.3504                 7.0434
 Frc consts  --      1.6898                 1.4862                 1.6032
 IR Inten    --      2.5362                 0.2617                 1.4788

                     22                     23                     24
                      A                      A                      A
 Frequencies --    695.0501               756.5435               785.4607
 Red. masses --      2.4295                17.5321                11.0302
 Frc consts  --      0.6915                 5.9122                 4.0094
 IR Inten    --     15.9421                21.9903                40.1060

                     25                     26                     27
                      A                      A                      A
 Frequencies --    885.3644               904.0594               925.1428
 Red. masses --      9.7966                 1.5729                 1.3663
 Frc consts  --      4.5245                 0.7574                 0.6890
 IR Inten    --     17.9636                19.2563                 0.4132

                     28                     29                     30
                      A                      A                      A
 Frequencies --    933.0588              1015.7476              1121.9550
 Red. masses --      1.3833                 6.1561                 8.0840
 Frc consts  --      0.7096                 3.7422                 5.9956
 IR Inten    --      3.0529                 3.3496               397.7325

                     31                     32                     33
                      A                      A                      A
 Frequencies --   1136.0389              1147.6248              1200.0405
 Red. masses --      1.7872                 1.7304                12.4190
 Frc consts  --      1.3590                 1.3427                10.5373
 IR Inten    --     10.0204                54.1534               209.6369

                     34                     35                     36
                      A                      A                      A
 Frequencies --   1231.9251              1234.3584              1291.8499
 Red. masses --     12.2813                 4.2724                 1.4964
 Frc consts  --     10.9816                 3.8354                 1.4714
 IR Inten    --    224.9866                25.2032                 0.4205

                     37                     38                     39
                      A                      A                      A
 Frequencies --   1342.8939              1446.4829              1458.2053
 Red. masses --      3.6534                 3.0533                 3.3590
 Frc consts  --      3.8818                 3.7639                 4.2082
 IR Inten    --      0.3576                22.6440                12.1857

                     40                     41                     42
                      A                      A                      A
 Frequencies --   1601.7470              1632.9391              2358.3498
 Red. masses --      5.8878                 6.0952                12.6794
 Frc consts  --      8.9000                 9.5759                41.5495
 IR Inten    --     63.0113                 9.7661                14.6340

                     43                     44                     45
                      A                      A                      A
 Frequencies --   3234.2358              3236.8687              3242.7961
 Red. masses --      1.0930                 1.0932                 1.0927
 Frc consts  --      6.7363                 6.7481                 6.7702
 IR Inten    --      1.1231                 1.1971                 2.5863

 - Thermochemistry -
 -------------------
 Temperature   298.150 Kelvin.  Pressure   1.00000 Atm.
 Atom     1 has atomic number  7 and mass  14.00307

 Molecular mass:   280.91217 amu.
 Principal axes and moments of inertia in atomic units:
                           1         2         3
     Eigenvalues --  3438.817046377.865089050.83708
           X            0.99901   0.04417  -0.00452
           Y           -0.04419   0.99902  -0.00264
           Z            0.00439   0.00283   0.99999
 This molecule is an asymmetric top.
 Rotational symmetry number  1.
 Warning -- assumption of classical behavior for rotation
           may cause significant error
 Rotational temperatures (Kelvin)      0.02519     0.01358     0.00957
 Rotational constants (GHZ):           0.52481     0.28297     0.19940
 Zero-point vibrational energy     248781.0 (Joules/Mol)
                                   59.46007 (Kcal/Mol)
 Warning -- explicit consideration of  20 degrees of freedom as
           vibrations may cause significant error
 Vibrational temperatures:     21.45    58.88    81.26   162.37   177.08
          (Kelvin)            223.72   268.47   305.61   396.42   432.73
                              461.93   520.77   582.61   640.01   654.71
                              670.67   761.70   766.81   822.23   842.85
                              894.26  1000.02  1088.50  1130.10  1273.84
                             1300.74  1331.07  1342.46  1461.43  1614.24
                             1634.51  1651.18  1726.59  1772.47  1775.97
                             1858.68  1932.12  2081.17  2098.03  2304.56
                             2349.44  3393.14  4653.34  4657.13  4665.66

 Zero-point correction=                           0.094756 (Hartree/Particle)
 Thermal correction to Energy=                    0.107608
 Thermal correction to Enthalpy=                  0.108552
 Thermal correction to Gibbs Free Energy=         0.051716
 Sum of electronic and zero-point Energies=          -3630.752645
 Sum of electronic and thermal Energies=             -3630.739793
 Sum of electronic and thermal Enthalpies=           -3630.738849
 Sum of electronic and thermal Free Energies=        -3630.795684

                     E (Thermal)             CV                S
                      KCal/Mol        Cal/Mol-Kelvin    Cal/Mol-Kelvin
 Total                   67.525             45.357            119.620
 Electronic               0.000              0.000              0.000
 Translational            0.889              2.981             42.797
 Rotational               0.889              2.981             33.651
 Vibrational             65.747             39.396             43.173
 Vibration     1          0.593              1.986              7.217
 Vibration     2          0.594              1.981              5.214
 Vibration     3          0.596              1.975              4.577
 Vibration     4          0.607              1.939              3.219
 Vibration     5          0.610              1.930              3.051
 Vibration     6          0.620              1.897              2.604
 Vibration     7          0.632              1.858              2.261
 Vibration     8          0.643              1.822              2.023
 Vibration     9          0.677              1.719              1.561
 Vibration    10          0.693              1.672              1.413
 Vibration    11          0.707              1.633              1.305
 Vibration    12          0.736              1.551              1.114
 Vibration    13          0.770              1.459              0.945
 Vibration    14          0.804              1.372              0.812
 Vibration    15          0.813              1.350              0.781
 Vibration    16          0.823              1.325              0.748
 Vibration    17          0.884              1.185              0.589
 Vibration    18          0.888              1.177              0.581
 Vibration    19          0.928              1.093              0.501
 Vibration    20          0.943              1.062              0.475

 Optimization completed.
    -- Stationary point found.
 Normal termination of Gaussian 16 at Tue Sep 17 09:52:13 2024.

 ----------------------------------------------------------------------
 #p M062X/def2tzvp geom=check guess=read scf(xqc,tight) integral(grid=u
 ltrafine) scrf(SMD, solvent=1,4-Dioxane) polar prop=efg volume
 ----------------------------------------------------------------------

 ---
 spe
 ---
 Structure from the checkpoint file:  "smiles_00068_conf_5.chk"
 Charge =  0 Multiplicity = 1

 SCF Done:  E(RM062X) =  -3633.33946163     A.U. after   13 cycles

  Exact polarizability:     186.323       3.807     192.937     -16.284      -6.414      97.793
 Approx polarizability:     194.492       3.039     214.898     -17.954      -7.716     122.428

 Normal termination of Gaussian 16 at Tue Sep 17 10:42:52 2024.
 Gaussian 16:  ES64L-G16RevC.02  7-Dec-2021

 ----------------------------------------------------------------------
 #p M062X/def2tzvp geom=check guess=read scf(xqc,tight) integral(grid=u
 ltrafine) scrf(SMD, solvent=1,4-Dioxane) nmr=giao
 ----------------------------------------------------------------------

 ---
 spe
 ---
 Structure from the checkpoint file:  "smiles_00068_conf_5.chk"
 Charge =  0 Multiplicity = 1

                         Standard orientation:
 ---------------------------------------------------------------------
 Center     Atomic      Atomic             Coordinates (Angstroms)
 Number     Number       Type             X           Y           Z
 ---------------------------------------------------------------------
      1          7           0        1.879178    4.476684   -0.463185
      2          6           0        1.517579    3.391690   -0.255025
      3          6           0        1.070021    2.054848    0.003583
      4          6           0        1.967211    0.985483   -0.131982
      5          6           0        1.516502   -0.305542    0.123614
      6         35           0        2.724897   -1.764471   -0.054904
      7          6           0        0.203516   -0.552711    0.517413
      8          6           0       -0.684430    0.522750    0.636775
      9         16           0       -2.371853    0.242989    1.173243
     10          6           0       -3.014655   -0.535706   -0.350473
     11          9           0       -4.315820   -0.786313   -0.153994
     12          9           0       -2.883555    0.255593   -1.424310
     13          9           0       -2.397613   -1.697262   -0.635117
     14          6           0       -0.261678    1.826783    0.381100
     15          1           0        2.992707    1.164705   -0.428981
     16          1           0       -0.127165   -1.562187    0.723137
     17          1           0       -0.953038    2.655617    0.468664
 ---------------------------------------------------------------------

 SCF Done:  E(RM062X) =  -3633.33946163     A.U. after    1 cycles

      1  N    Isotropic =   -86.6730   Anisotropy =   466.0584

      2  C    Isotropic =    51.5492   Anisotropy =   378.4525

      3  C    Isotropic =    48.3724   Anisotropy =   170.6362

      4  C    Isotropic =    22.1599   Anisotropy =   198.8794

      5  C    Isotropic =    22.2691   Anisotropy =   157.6581

      6  Br   Isotropic =  2020.0482   Anisotropy =  1343.7812

      7  C    Isotropic =    16.2439   Anisotropy =   185.3651

      8  C    Isotropic =    31.5249   Anisotropy =   180.0044

      9  S    Isotropic =   283.5127   Anisotropy =   357.7733

     10  C    Isotropic =    39.9617   Anisotropy =    19.5399

     11  F    Isotropic =   226.4324   Anisotropy =   149.2095

     12  F    Isotropic =   215.7855   Anisotropy =   157.1627

     13  F    Isotropic =   214.9028   Anisotropy =   158.8122

     14  C    Isotropic =    20.6261   Anisotropy =   204.1626

     15  H    Isotropic =    23.1672   Anisotropy =    11.5176

     16  H    Isotropic =    22.9525   Anisotropy =    14.3269

     17  H    Isotropic =    23.1424   Anisotropy =    10.0592

 The electronic state is 1-A.
 Alpha  occ. eigenvalues -- -485.39617 -89.94944 -63.38089 -57.20042 -57.19794
 Alpha  occ. eigenvalues --  -57.19786 -25.30463 -25.30120 -25.30113 -14.77555
 Alpha  occ. eigenvalues --  -10.83582 -10.63574 -10.62034 -10.61879 -10.60137
 Alpha  occ. eigenvalues --  -10.59820 -10.59649 -10.59539  -9.04733  -8.30800
 Alpha  occ. eigenvalues --   -6.87168  -6.86250  -6.86223  -6.22770  -6.22564
 Alpha  occ. eigenvalues --   -6.22198  -2.90545  -2.90214  -2.90184  -2.89329
 Alpha  occ. eigenvalues --   -2.89329  -1.48586  -1.39809  -1.39349  -1.04007
 Alpha  occ. eigenvalues --   -1.01783  -0.94606  -0.92923  -0.87802  -0.85054
 Alpha  occ. eigenvalues --   -0.80224  -0.76745  -0.72185  -0.71280  -0.70931
 Alpha  occ. eigenvalues --   -0.66813  -0.62791  -0.60274  -0.59610  -0.59441
 Alpha  occ. eigenvalues --   -0.58654  -0.55985  -0.55487  -0.53629  -0.51706
 Alpha  occ. eigenvalues --   -0.51440  -0.51027  -0.47637  -0.46429  -0.45388
 Alpha  occ. eigenvalues --   -0.44958  -0.43906  -0.41725  -0.39784  -0.37202
 Alpha  occ. eigenvalues --   -0.35695  -0.33689  -0.32700
 Alpha virt. eigenvalues --   -0.05340  -0.03264   0.00824   0.03165   0.05408
 Alpha virt. eigenvalues --    0.07157   0.07986   0.09402   0.10211   0.11425
 Alpha virt. eigenvalues --    0.12638   0.13694   0.14462   0.14942   0.15294

 Mulliken charges:
               1
     1  N   -0.024987
     2  C   -0.216900
     3  C    0.231645
     4  C   -0.198881
     5  C    0.060284
     6  Br  -0.065916
     7  C   -0.122445
     8  C   -0.035491
     9  S   -0.005459
    10  C    0.449934
    11  F   -0.160337
    12  F   -0.162083
    13  F   -0.168276
    14  C   -0.197404
    15  H    0.208672
    16  H    0.204492
    17  H    0.203153
 Sum of Mulliken charges =  -0.00000

 Dipole moment (field-independent basis, Debye):
    X=             -0.1696    Y=             -2.5475    Z=              1.3698  Tot=              2.8974
 Quadrupole moment (field-independent basis, Debye-Ang):
   XX=           -101.5209   YY=           -117.8036   ZZ=            -98.7826
   XY=             -9.9319   XZ=             -1.3769   YZ=              3.0417

 Normal termination of Gaussian 16 at Tue Sep 17 11:01:03 2024.
