 Gaussian 16, Revision C.02,

 ----------------------------------------------------------------------
 #p B3LYP/6-31G(d,p) EmpiricalDispersion=GD3BJ opt freq scf(xqc,tight)
 integral(grid=ultrafine)
 ----------------------------------------------------------------------

 ----------------------------------
 opt-freq conformers_unique/conf_aa
 ----------------------------------
 Symbolic Z-matrix:
 Charge =  0 Multiplicity = 1

 SCF Done:  E(RB3LYP) =  -2819.41737727     A.U. after   14 cycles
 SCF Done:  E(RB3LYP) =  -2819.41838404     A.U. after   11 cycles
 SCF Done:  E(RB3LYP) =  -2819.41844052     A.U. after   10 cycles
 SCF Done:  E(RB3LYP) =  -2819.41844621     A.U. after    9 cycles
 Optimization completed.
    -- Stationary point found.
 Normal termination of Gaussian 16 at Tue Sep 17 09:46:29 2024.

 ----------------------------------------------------------------------
 #P Geom=AllCheck Guess=TCheck SCRF=Check GenChk RB3LYP/6-31G(d,p) Freq
 ----------------------------------------------------------------------

 Structure from the checkpoint file:  "smiles_00101_conf_0.chk"
 ----------------------------------
 opt-freq conformers_unique/conf_aa
 ----------------------------------
 Charge =  0 Multiplicity = 1

 SCF Done:  E(RB3LYP) =  -2819.41844621     A.U. after    1 cycles

                      1                      2                      3
                      A                      A                      A
 Frequencies --    161.5471               263.1999               313.4714
 Red. masses --      5.2068                 6.0290                13.2181
 Frc consts  --      0.0801                 0.2461                 0.7653
 IR Inten    --      0.9723                 1.1381                 5.8985

                      4                      5                      6
                      A                      A                      A
 Frequencies --    419.8552               485.1464               624.7435
 Red. masses --      3.4650                 3.2638                 7.4460
 Frc consts  --      0.3599                 0.4526                 1.7123
 IR Inten    --      3.8423                 2.1552                 2.7690

                      7                      8                      9
                      A                      A                      A
 Frequencies --    715.3255               749.8731               780.0622
 Red. masses --      7.0074                 3.9474                 1.3288
 Frc consts  --      2.1126                 1.3078                 0.4764
 IR Inten    --     34.3150                 0.2304                40.5976

                     10                     11                     12
                      A                      A                      A
 Frequencies --    903.8899               977.5510              1003.3518
 Red. masses --      1.2855                 1.3943                 7.0934
 Frc consts  --      0.6188                 0.7851                 4.2074
 IR Inten    --      0.2066                 0.1469                10.5541

                     13                     14                     15
                      A                      A                      A
 Frequencies --   1008.1584              1070.4167              1105.0621
 Red. masses --      1.2996                 2.9281                 1.9912
 Frc consts  --      0.7783                 1.9767                 1.4327
 IR Inten    --      0.0061                11.8582                46.6659

                     16                     17                     18
                      A                      A                      A
 Frequencies --   1135.2192              1179.4182              1313.2055
 Red. masses --      2.0871                 1.1287                 3.6273
 Frc consts  --      1.5847                 0.9251                 3.6855
 IR Inten    --     54.4103                 3.4826                 3.3579

                     19                     20                     21
                      A                      A                      A
 Frequencies --   1324.1461              1457.0423              1495.6261
 Red. masses --      1.8108                 2.1183                 2.0528
 Frc consts  --      1.8707                 2.6496                 2.7055
 IR Inten    --      0.6317                62.2434                58.2682

                     22                     23                     24
                      A                      A                      A
 Frequencies --   1624.5494              1626.7164              3180.3085
 Red. masses --      5.4860                 5.8768                 1.0896
 Frc consts  --      8.5304                 9.1625                 6.4929
 IR Inten    --     75.1911                32.4413                15.6287

                     25                     26                     27
                      A                      A                      A
 Frequencies --   3198.3107              3219.5273              3236.1189
 Red. masses --      1.0895                 1.0961                 1.0952
 Frc consts  --      6.5660                 6.6941                 6.7577
 IR Inten    --      8.2204                12.5200                 1.0489

 - Thermochemistry -
 -------------------
 Temperature   298.150 Kelvin.  Pressure   1.00000 Atm.
 Atom     1 has atomic number 35 and mass  78.91834

 Molecular mass:   156.95271 amu.
 Principal axes and moments of inertia in atomic units:
                           1         2         3
     Eigenvalues --   306.837711779.250302086.08801
           X            1.00000   0.00126  -0.00005
           Y           -0.00126   1.00000  -0.00003
           Z            0.00005   0.00003   1.00000
 This molecule is an asymmetric top.
 Rotational symmetry number  1.
 Rotational temperatures (Kelvin)      0.28228     0.04868     0.04152
 Rotational constants (GHZ):           5.88175     1.01433     0.86513
 Zero-point vibrational energy     206785.5 (Joules/Mol)
                                   49.42293 (Kcal/Mol)
 Warning -- explicit consideration of   5 degrees of freedom as
           vibrations may cause significant error
 Vibrational temperatures:    232.43   378.69   451.02   604.08   698.02
          (Kelvin)            898.87  1029.19  1078.90  1122.34  1300.50
                             1406.48  1443.60  1450.52  1540.09  1589.94
                             1633.33  1696.92  1889.41  1905.15  2096.36
                             2151.87  2337.36  2340.48  4575.75  4601.66
                             4632.18  4656.05

 Zero-point correction=                           0.078760 (Hartree/Particle)
 Thermal correction to Energy=                    0.084341
 Thermal correction to Enthalpy=                  0.085286
 Thermal correction to Gibbs Free Energy=         0.047937
 Sum of electronic and zero-point Energies=          -2819.339686
 Sum of electronic and thermal Energies=             -2819.334105
 Sum of electronic and thermal Enthalpies=           -2819.333161
 Sum of electronic and thermal Free Energies=        -2819.370509

                     E (Thermal)             CV                S
                      KCal/Mol        Cal/Mol-Kelvin    Cal/Mol-Kelvin
 Total                   52.925             20.379             78.607
 Electronic               0.000              0.000              0.000
 Translational            0.889              2.981             41.062
 Rotational               0.889              2.981             28.523
 Vibrational             51.148             14.418              9.022
 Vibration     1          0.622              1.890              2.532
 Vibration     2          0.670              1.740              1.640
 Vibration     3          0.701              1.648              1.344
 Vibration     4          0.783              1.427              0.892
 Vibration     5          0.841              1.283              0.696

 Optimization completed.
    -- Stationary point found.
 Normal termination of Gaussian 16 at Tue Sep 17 09:46:51 2024.

 ----------------------------------------------------------------------
 #p M062X/def2tzvp geom=check guess=read scf(xqc,tight) integral(grid=u
 ltrafine) scrf(SMD, solvent=1,4-Dioxane) polar prop=efg volume
 ----------------------------------------------------------------------

 ---
 spe
 ---
 Structure from the checkpoint file:  "smiles_00101_conf_0.chk"
 Charge =  0 Multiplicity = 1

 SCF Done:  E(RM062X) =  -2821.87075575     A.U. after   12 cycles

  Exact polarizability:     134.419      -2.267      94.422       0.004       0.001      53.354
 Approx polarizability:     140.725      -2.439     112.881       0.003       0.001      65.860

 Normal termination of Gaussian 16 at Tue Sep 17 09:52:07 2024.
 Gaussian 16:  ES64L-G16RevC.02  7-Dec-2021

 ----------------------------------------------------------------------
 #p M062X/def2tzvp geom=check guess=read scf(xqc,tight) integral(grid=u
 ltrafine) scrf(SMD, solvent=1,4-Dioxane) nmr=giao
 ----------------------------------------------------------------------

 ---
 spe
 ---
 Structure from the checkpoint file:  "smiles_00101_conf_0.chk"
 Charge =  0 Multiplicity = 1

                         Standard orientation:
 ---------------------------------------------------------------------
 Center     Atomic      Atomic             Coordinates (Angstroms)
 Number     Number       Type             X           Y           Z
 ---------------------------------------------------------------------
      1         35           0       -1.788400   -0.006136   -0.000085
      2          6           0        0.132518   -0.015589    0.000021
      3          6           0        0.797323    1.212465    0.000077
      4          6           0        2.188408    1.179012    0.000136
      5          6           0        2.839330   -0.055832    0.000128
      6          6           0        2.061304   -1.210759    0.000053
      7          7           0        0.719702   -1.195947    0.000001
      8          1           0        0.243429    2.142563    0.000075
      9          1           0        2.753702    2.105791    0.000187
     10          1           0        3.921530   -0.123307    0.000175
     11          1           0        2.524137   -2.194441    0.000046
 ---------------------------------------------------------------------

 SCF Done:  E(RM062X) =  -2821.87075575     A.U. after    1 cycles

      1  Br   Isotropic =  1930.5467   Anisotropy =  1500.8155

      2  C    Isotropic =     2.0065   Anisotropy =   117.0714

      3  C    Isotropic =    35.1513   Anisotropy =   177.2583

      4  C    Isotropic =    22.5929   Anisotropy =   236.7559

      5  C    Isotropic =    41.4942   Anisotropy =   210.5414

      6  C    Isotropic =    10.2710   Anisotropy =   200.2147

      7  N    Isotropic =  -138.7726   Anisotropy =   578.9525

      8  H    Isotropic =    23.6400   Anisotropy =    10.8713

      9  H    Isotropic =    23.3772   Anisotropy =     6.3783

     10  H    Isotropic =    23.8483   Anisotropy =     5.8501

     11  H    Isotropic =    22.5148   Anisotropy =     6.8516

 The electronic state is 1-A.
 Alpha  occ. eigenvalues -- -485.37375 -63.35875 -57.17814 -57.17586 -57.17573
 Alpha  occ. eigenvalues --  -14.76800 -10.63909 -10.59154 -10.57379 -10.56734
 Alpha  occ. eigenvalues --  -10.56066  -9.02529  -6.84924  -6.84078  -6.84034
 Alpha  occ. eigenvalues --   -2.88301  -2.88000  -2.87954  -2.87167  -2.87166
 Alpha  occ. eigenvalues --   -1.07892  -0.91946  -0.90867  -0.83397  -0.73345
 Alpha  occ. eigenvalues --   -0.70735  -0.60578  -0.56941  -0.54292  -0.50050
 Alpha  occ. eigenvalues --   -0.49580  -0.48091  -0.43067  -0.38449  -0.35881
 Alpha  occ. eigenvalues --   -0.35328  -0.34445  -0.31116
 Alpha virt. eigenvalues --   -0.01033   0.00065   0.03800   0.09045   0.11024
 Alpha virt. eigenvalues --    0.12094   0.13564   0.14010   0.16467   0.18796
 Alpha virt. eigenvalues --    0.20537   0.22603   0.22616   0.24686   0.25496

 Mulliken charges:
               1
     1  Br  -0.110933
     2  C    0.157625
     3  C   -0.203315
     4  C   -0.099916
     5  C   -0.165127
     6  C   -0.043495
     7  N   -0.230496
     8  H    0.181892
     9  H    0.175614
    10  H    0.168835
    11  H    0.169315
 Sum of Mulliken charges =  -0.00000

 Dipole moment (field-independent basis, Debye):
    X=              3.5842    Y=              2.0699    Z=              0.0002  Tot=              4.1390
 Quadrupole moment (field-independent basis, Debye-Ang):
   XX=            -43.5176   YY=            -50.2817   ZZ=            -55.6917
   XY=             -0.0329   XZ=              0.0006   YZ=              0.0002

 Normal termination of Gaussian 16 at Tue Sep 17 09:54:36 2024.
