 Gaussian 16, Revision C.02,

 ----------------------------------------------------------------------
 #p B3LYP/gen pseudo=read EmpiricalDispersion=GD3BJ opt freq scf(xqc,ti
 ght) integral(grid=ultrafine)
 ----------------------------------------------------------------------

 ----------------------------------
 opt-freq conformers_unique/conf_aa
 ----------------------------------
 Symbolic Z-matrix:
 Charge =  0 Multiplicity = 1

 SCF Done:  E(RB3LYP) =  -396.714313487     A.U. after   14 cycles
 SCF Done:  E(RB3LYP) =  -396.715669692     A.U. after   12 cycles
 SCF Done:  E(RB3LYP) =  -396.715704668     A.U. after    9 cycles
 Optimization completed.
    -- Stationary point found.
 Normal termination of Gaussian 16 at Tue Sep 17 09:56:31 2024.

 ------------------------------------------------------------------
 #P Geom=AllCheck Guess=TCheck SCRF=Check GenChk RB3LYP/ChkBas Freq
 ------------------------------------------------------------------

 Structure from the checkpoint file:  "smiles_00097_conf_0.chk"
 ----------------------------------
 opt-freq conformers_unique/conf_aa
 ----------------------------------
 Charge =  0 Multiplicity = 1

 SCF Done:  E(RB3LYP) =  -396.715704668     A.U. after    1 cycles

                      1                      2                      3
                      A                      A                      A
 Frequencies --     81.3522               152.7294               182.8159
 Red. masses --      5.7298                 6.7898                 3.7405
 Frc consts  --      0.0223                 0.0933                 0.0737
 IR Inten    --      0.1325                 0.0566                 0.6575

                      4                      5                      6
                      A                      A                      A
 Frequencies --    222.2230               250.2789               397.0334
 Red. masses --     11.2175                 5.0335                 4.0932
 Frc consts  --      0.3264                 0.1858                 0.3802
 IR Inten    --      1.2343                 0.0127                 2.0012

                      7                      8                      9
                      A                      A                      A
 Frequencies --    400.5366               484.8521               509.1722
 Red. masses --      3.2600                 2.6577                 3.7898
 Frc consts  --      0.3081                 0.3681                 0.5789
 IR Inten    --      0.4213                13.6801                 0.0063

                     10                     11                     12
                      A                      A                      A
 Frequencies --    524.9174               570.1404               633.7644
 Red. masses --      6.8470                 7.5784                 3.7152
 Frc consts  --      1.1116                 1.4514                 0.8792
 IR Inten    --      0.1154                13.0944                 1.8143

                     13                     14                     15
                      A                      A                      A
 Frequencies --    642.7059               758.2194               774.8066
 Red. masses --      6.7875                 1.2471                 2.7886
 Frc consts  --      1.6519                 0.4224                 0.9863
 IR Inten    --      0.2084                16.4752                 3.3824

                     16                     17                     18
                      A                      A                      A
 Frequencies --    786.8257               826.5475               831.0162
 Red. masses --      4.6784                 1.4016                 6.3194
 Frc consts  --      1.7065                 0.5642                 2.5713
 IR Inten    --      4.7961                35.6305                41.6792

                     19                     20                     21
                      A                      A                      A
 Frequencies --    872.6291               909.1888               946.0527
 Red. masses --      1.3840                 1.5794                 5.3667
 Frc consts  --      0.6209                 0.7692                 2.8300
 IR Inten    --     14.0932                 5.4760                30.5064

                     22                     23                     24
                      A                      A                      A
 Frequencies --    961.0875               974.8133               996.6540
 Red. masses --      1.3195                 1.3314                 1.2834
 Frc consts  --      0.7181                 0.7454                 0.7511
 IR Inten    --      1.7526                 0.9864                 0.0022

                     25                     26                     27
                      A                      A                      A
 Frequencies --   1050.9432              1083.1560              1160.4721
 Red. masses --      2.3591                 2.3995                 1.6111
 Frc consts  --      1.5351                 1.6586                 1.2783
 IR Inten    --      0.6320                19.6770                11.3081

                     28                     29                     30
                      A                      A                      A
 Frequencies --   1181.8784              1187.6516              1235.3472
 Red. masses --      1.2237                 1.1673                 2.0372
 Frc consts  --      1.0071                 0.9701                 1.8317
 IR Inten    --      0.9794                 0.1220                 5.6859

                     31                     32                     33
                      A                      A                      A
 Frequencies --   1270.0082              1294.5864              1383.4510
 Red. masses --      1.4867                 1.7967                 1.9520
 Frc consts  --      1.4128                 1.7741                 2.2012
 IR Inten    --      3.9944                 6.7810                 2.5505

                     34                     35                     36
                      A                      A                      A
 Frequencies --   1402.7045              1421.5710              1476.4761
 Red. masses --      3.7429                 7.7184                 2.3968
 Frc consts  --      4.3391                 9.1900                 3.0784
 IR Inten    --      6.6083                 0.2368                 0.3697

                     37                     38                     39
                      A                      A                      A
 Frequencies --   1497.1316              1552.0447              1623.6255
 Red. masses --      2.1282                 3.3127                 7.0610
 Frc consts  --      2.8106                 4.7015                10.9670
 IR Inten    --     13.2350                19.8353                 0.7349

                     40                     41                     42
                      A                      A                      A
 Frequencies --   1640.3750              1680.5830              3180.9802
 Red. masses --      5.5616                 6.0699                 1.0858
 Frc consts  --      8.8173                10.1008                 6.4734
 IR Inten    --     42.5395                 7.3055                 1.7472

                     43                     44                     45
                      A                      A                      A
 Frequencies --   3185.1366              3187.6348              3198.4303
 Red. masses --      1.0887                 1.0887                 1.0938
 Frc consts  --      6.5074                 6.5180                 6.5926
 IR Inten    --      1.5210                 6.1139                25.9805

                     46                     47                     48
                      A                      A                      A
 Frequencies --   3207.7283              3210.8283              3223.4239
 Red. masses --      1.0919                 1.0975                 1.0940
 Frc consts  --      6.6194                 6.6665                 6.6975
 IR Inten    --      2.5012                25.7638                 5.6971

 - Thermochemistry -
 -------------------
 Temperature   298.150 Kelvin.  Pressure   1.00000 Atm.
 Atom     1 has atomic number 53 and mass 126.90040

 Molecular mass:   253.95518 amu.
 Principal axes and moments of inertia in atomic units:
                           1         2         3
     Eigenvalues --   688.954536223.492746912.44726
           X            0.99997  -0.00767   0.00003
           Y            0.00767   0.99997   0.00002
           Z           -0.00003  -0.00002   1.00000
 This molecule is an asymmetric top.
 Rotational symmetry number  1.
 Warning -- assumption of classical behavior for rotation
           may cause significant error
 Rotational temperatures (Kelvin)      0.12572     0.01392     0.01253
 Rotational constants (GHZ):           2.61954     0.28999     0.26109
 Zero-point vibrational energy     360234.6 (Joules/Mol)
                                   86.09815 (Kcal/Mol)
 Warning -- explicit consideration of  11 degrees of freedom as
           vibrations may cause significant error
 Vibrational temperatures:    117.05   219.74   263.03   319.73   360.10
          (Kelvin)            571.24   576.28   697.59   732.59   755.24
                              820.30   911.85   924.71  1090.91  1114.77
                             1132.07  1189.22  1195.65  1255.52  1308.12
                             1361.16  1382.79  1402.54  1433.96  1512.07
                             1558.42  1669.66  1700.46  1708.77  1777.39
                             1827.26  1862.62  1990.48  2018.18  2045.32
                             2124.32  2154.04  2233.05  2336.03  2360.13
                             2417.98  4576.72  4582.70  4586.30  4601.83
                             4615.21  4619.67  4637.79

 Zero-point correction=                           0.137206 (Hartree/Particle)
 Thermal correction to Energy=                    0.145661
 Thermal correction to Enthalpy=                  0.146605
 Thermal correction to Gibbs Free Energy=         0.101883
 Sum of electronic and zero-point Energies=           -396.578499
 Sum of electronic and thermal Energies=              -396.570044
 Sum of electronic and thermal Enthalpies=            -396.569100
 Sum of electronic and thermal Free Energies=         -396.613822

                     E (Thermal)             CV                S
                      KCal/Mol        Cal/Mol-Kelvin    Cal/Mol-Kelvin
 Total                   91.404             33.327             94.125
 Electronic               0.000              0.000              0.000
 Translational            0.889              2.981             42.496
 Rotational               0.889              2.981             31.761
 Vibrational             89.626             27.366             19.868
 Vibration     1          0.600              1.962              3.858
 Vibration     2          0.619              1.900              2.638
 Vibration     3          0.630              1.863              2.299
 Vibration     4          0.648              1.807              1.941
 Vibration     5          0.663              1.762              1.729
 Vibration     6          0.764              1.476              0.974
 Vibration     7          0.766              1.469              0.961
 Vibration     8          0.841              1.284              0.697
 Vibration     9          0.864              1.230              0.636
 Vibration    10          0.880              1.195              0.599
 Vibration    11          0.926              1.096              0.504

 Optimization completed.
    -- Stationary point found.
 Normal termination of Gaussian 16 at Tue Sep 17 09:57:28 2024.

 ----------------------------------------------------------------------
 #p M062X/def2tzvp geom=check guess=read scf(xqc,tight) integral(grid=u
 ltrafine) scrf(SMD, solvent=1,4-Dioxane) polar prop=efg volume
 ----------------------------------------------------------------------

 ---
 spe
 ---
 Structure from the checkpoint file:  "smiles_00097_conf_0.chk"
 Charge =  0 Multiplicity = 1

 SCF Done:  E(RM062X) =  -682.896044079     A.U. after   21 cycles

  Exact polarizability:     280.659      -8.864     168.962      -0.007      -0.001      88.080
 Approx polarizability:     279.140      -8.946     205.106      -0.006      -0.002     113.631

 Normal termination of Gaussian 16 at Tue Sep 17 10:39:20 2024.
 Gaussian 16:  ES64L-G16RevC.02  7-Dec-2021

 ----------------------------------------------------------------------
 #p M062X/def2tzvp geom=check guess=read scf(xqc,tight) integral(grid=u
 ltrafine) scrf(SMD, solvent=1,4-Dioxane) nmr=giao
 ----------------------------------------------------------------------

 ---
 spe
 ---
 Structure from the checkpoint file:  "smiles_00097_conf_0.chk"
 Charge =  0 Multiplicity = 1

                         Standard orientation:
 ---------------------------------------------------------------------
 Center     Atomic      Atomic             Coordinates (Angstroms)
 Number     Number       Type             X           Y           Z
 ---------------------------------------------------------------------
      1         53           0       -2.609345   -0.165324    0.000084
      2          6           0       -0.505529    0.233787    0.000026
      3          6           0       -0.071981    1.580573   -0.000010
      4          6           0        1.276792    1.852124   -0.000068
      5          6           0        2.238973    0.808616   -0.000090
      6          6           0        3.635197    1.063847   -0.000158
      7          6           0        4.539276    0.026205   -0.000168
      8          6           0        4.086932   -1.316122   -0.000110
      9          6           0        2.739826   -1.597051   -0.000046
     10          6           0        1.782305   -0.548232   -0.000037
     11          6           0        0.385841   -0.810930    0.000016
     12          1           0       -0.797200    2.385749    0.000001
     13          1           0        1.620056    2.882992   -0.000093
     14          1           0        3.977648    2.094974   -0.000204
     15          1           0        5.605173    0.232417   -0.000225
     16          1           0        4.810740   -2.125374   -0.000115
     17          1           0        2.389308   -2.625339   -0.000006
     18          1           0        0.043785   -1.840151    0.000057
 ---------------------------------------------------------------------

 SCF Done:  E(RM062X) =  -682.896044079     A.U. after    1 cycles

      1  I    Isotropic =   434.6524   Anisotropy =    72.8459

      2  C    Isotropic =    30.5387   Anisotropy =   132.3469

      3  C    Isotropic =    30.3275   Anisotropy =   174.6287

      4  C    Isotropic =    33.4744   Anisotropy =   186.0422

      5  C    Isotropic =    30.1053   Anisotropy =   250.0098

      6  C    Isotropic =    34.9361   Anisotropy =   194.2617

      7  C    Isotropic =    37.5540   Anisotropy =   216.2276

      8  C    Isotropic =    35.9610   Anisotropy =   213.6870

      9  C    Isotropic =    35.7784   Anisotropy =   191.7884

     10  C    Isotropic =    27.6012   Anisotropy =   239.0243

     11  C    Isotropic =    27.2206   Anisotropy =   161.7114

     12  H    Isotropic =    23.4565   Anisotropy =    12.7452

     13  H    Isotropic =    23.0981   Anisotropy =     8.5556

     14  H    Isotropic =    23.0084   Anisotropy =     8.5400

     15  H    Isotropic =    23.4831   Anisotropy =     6.4301

     16  H    Isotropic =    23.3755   Anisotropy =     6.7773

     17  H    Isotropic =    23.0952   Anisotropy =     9.3541

     18  H    Isotropic =    22.8711   Anisotropy =    14.6738

 The electronic state is 1-A.
 Alpha  occ. eigenvalues --  -10.59874 -10.56301 -10.56058 -10.55808 -10.55743
 Alpha  occ. eigenvalues --  -10.55509 -10.55006 -10.54991 -10.54898 -10.54830
 Alpha  occ. eigenvalues --   -7.10342  -5.09678  -5.08648  -5.08644  -2.06509
 Alpha  occ. eigenvalues --   -2.06078  -2.06077  -2.05221  -2.05220  -0.99070
 Alpha  occ. eigenvalues --   -0.93545  -0.88221  -0.85169  -0.82537  -0.77648
 Alpha  occ. eigenvalues --   -0.71582  -0.68893  -0.68655  -0.59692  -0.58537
 Alpha  occ. eigenvalues --   -0.55864  -0.52425  -0.51336  -0.49087  -0.48724
 Alpha  occ. eigenvalues --   -0.47754  -0.45687  -0.42870  -0.41378  -0.39853
 Alpha  occ. eigenvalues --   -0.38423  -0.35959  -0.33462  -0.32146  -0.29494
 Alpha  occ. eigenvalues --   -0.27271
 Alpha virt. eigenvalues --   -0.02573  -0.00354   0.00141   0.04254   0.09000
 Alpha virt. eigenvalues --    0.09634   0.10227   0.11921   0.12567   0.12901
 Alpha virt. eigenvalues --    0.14567   0.15034   0.15554   0.17842   0.18403

 Mulliken charges:
               1
     1  I   -0.105893
     2  C    0.093681
     3  C   -0.212042
     4  C   -0.181304
     5  C    0.088015
     6  C   -0.205762
     7  C   -0.157066
     8  C   -0.153595
     9  C   -0.210394
    10  C    0.120223
    11  C   -0.253234
    12  H    0.184327
    13  H    0.162833
    14  H    0.158511
    15  H    0.163651
    16  H    0.163867
    17  H    0.158622
    18  H    0.185560
 Sum of Mulliken charges =  -0.00000

 Dipole moment (field-independent basis, Debye):
    X=              2.3293    Y=              0.2875    Z=             -0.0001  Tot=              2.3469
 Quadrupole moment (field-independent basis, Debye-Ang):
   XX=            -75.5803   YY=            -75.1025   ZZ=            -90.9068
   XY=             -0.0307   XZ=             -0.0006   YZ=             -0.0004

 Normal termination of Gaussian 16 at Tue Sep 17 10:51:14 2024.
