 Gaussian 16, Revision C.02,

 ----------------------------------------------------------------------
 #p B3LYP/6-31G(d,p) EmpiricalDispersion=GD3BJ opt freq scf(xqc,tight)
 integral(grid=ultrafine)
 ----------------------------------------------------------------------

 ----------------------------------
 opt-freq conformers_unique/conf_aa
 ----------------------------------
 Symbolic Z-matrix:
 Charge =  0 Multiplicity = 1

 SCF Done:  E(RB3LYP) =  -3110.65194371     A.U. after   15 cycles
 SCF Done:  E(RB3LYP) =  -3110.65317583     A.U. after   12 cycles
 SCF Done:  E(RB3LYP) =  -3110.65327322     A.U. after   11 cycles
 SCF Done:  E(RB3LYP) =  -3110.65330575     A.U. after   11 cycles
 SCF Done:  E(RB3LYP) =  -3110.65330693     A.U. after    8 cycles
 Optimization completed.
    -- Stationary point found.
 Normal termination of Gaussian 16 at Tue Sep 17 09:52:22 2024.

 ----------------------------------------------------------------------
 #P Geom=AllCheck Guess=TCheck SCRF=Check GenChk RB3LYP/6-31G(d,p) Freq
 ----------------------------------------------------------------------

 Structure from the checkpoint file:  "smiles_00081_conf_0.chk"
 ----------------------------------
 opt-freq conformers_unique/conf_aa
 ----------------------------------
 Charge =  0 Multiplicity = 1

 SCF Done:  E(RB3LYP) =  -3110.65330693     A.U. after    1 cycles
 ******    1 imaginary frequencies (negative Signs) ******

                      1                      2                      3
                      A                      A                      A
 Frequencies --    -54.9766                50.2360                70.1202
 Red. masses --      1.0703                 5.1466                 5.0033
 Frc consts  --      0.0019                 0.0077                 0.0145
 IR Inten    --      0.5065                 0.3229                 7.9989

                      4                      5                      6
                      A                      A                      A
 Frequencies --    121.6008               143.5696               217.9384
 Red. masses --      6.7162                 5.5432                 9.3147
 Frc consts  --      0.0585                 0.0673                 0.2607
 IR Inten    --      3.8700                 0.2871                 2.6786

                      7                      8                      9
                      A                      A                      A
 Frequencies --    221.5227               238.7173               287.3657
 Red. masses --      6.2673                 7.8434                 8.9752
 Frc consts  --      0.1812                 0.2633                 0.4367
 IR Inten    --      0.0165                 2.4272                 1.6579

                     10                     11                     12
                      A                      A                      A
 Frequencies --    357.5635               384.0165               459.2950
 Red. masses --      6.0633                 4.5890                 3.3080
 Frc consts  --      0.4567                 0.3987                 0.4111
 IR Inten    --      0.1246                 8.0908                 3.0144

                     13                     14                     15
                      A                      A                      A
 Frequencies --    485.0572               552.4656               559.4594
 Red. masses --      5.1430                 8.9796                 1.8772
 Frc consts  --      0.7129                 1.6148                 0.3462
 IR Inten    --     14.9968                 4.7477                55.2110

                     16                     17                     18
                      A                      A                      A
 Frequencies --    589.1267               604.6570               628.2499
 Red. masses --      3.8604                 4.9769                 1.5017
 Frc consts  --      0.7894                 1.0721                 0.3492
 IR Inten    --      0.3440                 0.3318                26.3113

                     19                     20                     21
                      A                      A                      A
 Frequencies --    686.3885               706.6502               834.1106
 Red. masses --      6.0346                 4.6947                 4.3270
 Frc consts  --      1.6751                 1.3812                 1.7737
 IR Inten    --     11.4564                 0.0017                 7.6493

                     22                     23                     24
                      A                      A                      A
 Frequencies --    852.9439               874.4292               881.9021
 Red. masses --      1.3615                 1.3619                 7.2286
 Frc consts  --      0.5836                 0.6136                 3.3124
 IR Inten    --     25.2166                19.8840                52.9843

                     25                     26                     27
                      A                      A                      A
 Frequencies --    970.2609               986.3813              1010.7968
 Red. masses --      6.2281                 1.2989                 1.6357
 Frc consts  --      3.4545                 0.7446                 0.9847
 IR Inten    --     17.2322                 1.6998                29.5716

                     28                     29                     30
                      A                      A                      A
 Frequencies --   1052.2352              1091.8234              1144.1067
 Red. masses --      1.7188                 1.8077                 1.8763
 Frc consts  --      1.1212                 1.2696                 1.4471
 IR Inten    --      4.6073                 5.8806                22.3516

                     31                     32                     33
                      A                      A                      A
 Frequencies --   1218.8219              1254.7016              1275.5785
 Red. masses --      1.9774                 2.5119                 1.5868
 Frc consts  --      1.7307                 2.3299                 1.5212
 IR Inten    --     18.5837                82.7143                22.3003

                     34                     35                     36
                      A                      A                      A
 Frequencies --   1318.5494              1364.3554              1402.4664
 Red. masses --      3.4913                 4.4689                 1.3331
 Frc consts  --      3.5763                 4.9013                 1.5449
 IR Inten    --     54.4239                79.8726                35.3171

                     37                     38                     39
                      A                      A                      A
 Frequencies --   1456.9891              1482.1727              1497.1696
 Red. masses --      3.9193                 1.0973                 1.0452
 Frc consts  --      4.9020                 1.4203                 1.3804
 IR Inten    --     81.3528                32.7653                 8.6957

                     40                     41                     42
                      A                      A                      A
 Frequencies --   1520.1883              1563.2249              1642.0865
 Red. masses --      2.2554                 2.8491                 5.4941
 Frc consts  --      3.0709                 4.1020                 8.7285
 IR Inten    --     56.2783               610.1717                60.4069

                     43                     44                     45
                      A                      A                      A
 Frequencies --   1666.0660              1798.3742              3053.3605
 Red. masses --      6.5579                 8.8676                 1.0388
 Frc consts  --     10.7250                16.8973                 5.7062
 IR Inten    --     33.4126               191.4573                 4.4467

                     46                     47                     48
                      A                      A                      A
 Frequencies --   3117.4040              3182.2268              3225.5095
 Red. masses --      1.1013                 1.1007                 1.0915
 Frc consts  --      6.3057                 6.5669                 6.6906
 IR Inten    --      9.6245                 4.4812                 0.8840

                     49                     50                     51
                      A                      A                      A
 Frequencies --   3240.5243              3270.0474              3634.1758
 Red. masses --      1.0929                 1.0925                 1.0767
 Frc consts  --      6.7618                 6.8831                 8.3785
 IR Inten    --      0.7234                 8.5731                40.2384

 - Thermochemistry -
 -------------------
 Temperature   298.150 Kelvin.  Pressure   1.00000 Atm.
 Atom     1 has atomic number  6 and mass  12.00000

 Molecular mass:   230.96950 amu.
 Principal axes and moments of inertia in atomic units:
                           1         2         3
     Eigenvalues --   946.868646685.540377621.12207
           X            0.99999  -0.00400   0.00001
           Y            0.00400   0.99999   0.00001
           Z           -0.00001  -0.00001   1.00000
 This molecule is an asymmetric top.
 Rotational symmetry number  1.
 Warning -- assumption of classical behavior for rotation
           may cause significant error
 Rotational temperatures (Kelvin)      0.09147     0.01296     0.01136
 Rotational constants (GHZ):           1.90601     0.26995     0.23681
    1 imaginary frequencies ignored.
 Zero-point vibrational energy     360357.0 (Joules/Mol)
                                   86.12739 (Kcal/Mol)
 Warning -- explicit consideration of  16 degrees of freedom as
           vibrations may cause significant error
 Vibrational temperatures:     72.28   100.89   174.96   206.56   313.56
          (Kelvin)            318.72   343.46   413.46   514.45   552.51
                              660.82   697.89   794.87   804.94   847.62
                              869.97   903.91   987.56  1016.71  1200.10
                             1227.20  1258.11  1268.86  1395.99  1419.18
                             1454.31  1513.93  1570.89  1646.11  1753.61
                             1805.24  1835.27  1897.10  1963.00  2017.84
                             2096.28  2132.52  2154.09  2187.21  2249.13
                             2362.60  2397.10  2587.46  4393.10  4485.25
                             4578.51  4640.79  4662.39  4704.87  5228.77

 Zero-point correction=                           0.137253 (Hartree/Particle)
 Thermal correction to Energy=                    0.147841
 Thermal correction to Enthalpy=                  0.148786
 Thermal correction to Gibbs Free Energy=         0.099148
 Sum of electronic and zero-point Energies=          -3110.516054
 Sum of electronic and thermal Energies=             -3110.505466
 Sum of electronic and thermal Enthalpies=           -3110.504521
 Sum of electronic and thermal Free Energies=        -3110.554159

                     E (Thermal)             CV                S
                      KCal/Mol        Cal/Mol-Kelvin    Cal/Mol-Kelvin
 Total                   92.772             39.133            104.471
 Electronic               0.000              0.000              0.000
 Translational            0.889              2.981             42.213
 Rotational               0.889              2.981             32.245
 Vibrational             90.994             33.171             30.012
 Vibration     1          0.595              1.978              4.808
 Vibration     2          0.598              1.968              4.150
 Vibration     3          0.609              1.931              3.075
 Vibration     4          0.616              1.910              2.756
 Vibration     5          0.646              1.814              1.976
 Vibration     6          0.648              1.808              1.947
 Vibration     7          0.657              1.781              1.812
 Vibration     8          0.685              1.697              1.489
 Vibration     9          0.733              1.560              1.133
 Vibration    10          0.753              1.504              1.023
 Vibration    11          0.817              1.340              0.768
 Vibration    12          0.841              1.283              0.697
 Vibration    13          0.908              1.134              0.539
 Vibration    14          0.915              1.119              0.525
 Vibration    15          0.946              1.055              0.469
 Vibration    16          0.963              1.022              0.442

                           ! Non-Optimized Parameters !
 Normal termination of Gaussian 16 at Tue Sep 17 09:53:37 2024.

 ----------------------------------------------------------------------
 #p M062X/def2tzvp geom=check guess=read scf(xqc,tight) integral(grid=u
 ltrafine) scrf(SMD, solvent=1,4-Dioxane) polar prop=efg volume
 ----------------------------------------------------------------------

 ---
 spe
 ---
 Structure from the checkpoint file:  "smiles_00081_conf_0.chk"
 Charge =  0 Multiplicity = 1

 SCF Done:  E(RM062X) =  -3113.10370708     A.U. after   12 cycles

  Exact polarizability:     218.007      -0.896     136.941      -0.003       0.003      79.201
 Approx polarizability:     202.707      -0.217     168.170      -0.007       0.002      98.405

 Normal termination of Gaussian 16 at Tue Sep 17 10:27:20 2024.
 Gaussian 16:  ES64L-G16RevC.02  7-Dec-2021

 ----------------------------------------------------------------------
 #p M062X/def2tzvp geom=check guess=read scf(xqc,tight) integral(grid=u
 ltrafine) scrf(SMD, solvent=1,4-Dioxane) nmr=giao
 ----------------------------------------------------------------------

 ---
 spe
 ---
 Structure from the checkpoint file:  "smiles_00081_conf_0.chk"
 Charge =  0 Multiplicity = 1

                         Standard orientation:
 ---------------------------------------------------------------------
 Center     Atomic      Atomic             Coordinates (Angstroms)
 Number     Number       Type             X           Y           Z
 ---------------------------------------------------------------------
      1          6           0        5.047307    0.047434    0.000501
      2          6           0        3.659441   -0.570987   -0.000013
      3          8           0        3.468705   -1.777066    0.000631
      4          7           0        2.643142    0.362672   -0.000734
      5          6           0        1.262231    0.131952   -0.000474
      6          6           0        0.648063   -1.127432   -0.000668
      7          6           0       -0.743069   -1.229573   -0.000448
      8          6           0       -1.529626   -0.081762   -0.000074
      9         35           0       -3.431298   -0.232367    0.000181
     10          6           0       -0.949059    1.185778    0.000105
     11          6           0        0.430693    1.259981   -0.000089
     12          9           0        1.032086    2.478998    0.000065
     13          1           0        5.782706   -0.755661    0.000621
     14          1           0        5.197036    0.674411   -0.884788
     15          1           0        5.196470    0.674112    0.886103
     16          1           0        2.903797    1.338363   -0.000732
     17          1           0        1.271341   -2.009404   -0.000911
     18          1           0       -1.211212   -2.206294   -0.000582
     19          1           0       -1.540997    2.091816    0.000399
 ---------------------------------------------------------------------

 SCF Done:  E(RM062X) =  -3113.10370708     A.U. after    1 cycles

      1  C    Isotropic =   159.1627   Anisotropy =    55.7926

      2  C    Isotropic =    -3.6675   Anisotropy =   136.7515

      3  O    Isotropic =  -181.2586   Anisotropy =   752.0986

      4  N    Isotropic =   111.2619   Anisotropy =   110.4841

      5  C    Isotropic =    37.9539   Anisotropy =   163.7457

      6  C    Isotropic =    45.4898   Anisotropy =   198.7177

      7  C    Isotropic =    34.7343   Anisotropy =   181.0035

      8  C    Isotropic =    34.4090   Anisotropy =   134.2040

      9  Br   Isotropic =  2080.7141   Anisotropy =  1305.4554

     10  C    Isotropic =    48.0335   Anisotropy =   151.6427

     11  C    Isotropic =    13.9242   Anisotropy =   104.9850

     12  F    Isotropic =   316.5252   Anisotropy =   131.9766

     13  H    Isotropic =    29.9019   Anisotropy =     7.4089

     14  H    Isotropic =    29.5791   Anisotropy =     5.8265

     15  H    Isotropic =    29.5783   Anisotropy =     5.8264

     16  H    Isotropic =    24.0133   Anisotropy =    10.9533

     17  H    Isotropic =    22.2182   Anisotropy =    10.6333

     18  H    Isotropic =    23.8788   Anisotropy =    10.0557

     19  H    Isotropic =    23.9809   Anisotropy =     9.8563

 The electronic state is 1-A.
 Alpha  occ. eigenvalues -- -485.37918 -63.36394 -57.18341 -57.18101 -57.18096
 Alpha  occ. eigenvalues --  -25.27806 -19.61023 -14.79839 -10.66298 -10.64489
 Alpha  occ. eigenvalues --  -10.61060 -10.60967 -10.56836 -10.56074 -10.55825
 Alpha  occ. eigenvalues --  -10.54599  -9.03038  -6.85453  -6.84563  -6.84547
 Alpha  occ. eigenvalues --   -2.88829  -2.88506  -2.88486  -2.87657  -2.87657
 Alpha  occ. eigenvalues --   -1.38959  -1.17635  -1.06623  -0.98610  -0.90689
 Alpha  occ. eigenvalues --   -0.86724  -0.85430  -0.81197  -0.74044  -0.71796
 Alpha  occ. eigenvalues --   -0.66799  -0.64971  -0.61451  -0.58997  -0.58487
 Alpha  occ. eigenvalues --   -0.56327  -0.53880  -0.53581  -0.51803  -0.50889
 Alpha  occ. eigenvalues --   -0.49439  -0.47761  -0.47053  -0.44958  -0.44740
 Alpha  occ. eigenvalues --   -0.42965  -0.40808  -0.35777  -0.35623  -0.34451
 Alpha  occ. eigenvalues --   -0.32454  -0.28026
 Alpha virt. eigenvalues --   -0.00288   0.00923   0.03097   0.06011   0.06439
 Alpha virt. eigenvalues --    0.10471   0.10699   0.12035   0.12820   0.13701
 Alpha virt. eigenvalues --    0.14921   0.15186   0.15707   0.17353   0.18559

 Mulliken charges:
               1
     1  C   -0.516434
     2  C    0.397164
     3  O   -0.405809
     4  N   -0.358462
     5  C    0.111387
     6  C   -0.199372
     7  C   -0.171964
     8  C    0.039676
     9  Br  -0.105934
    10  C   -0.215158
    11  C    0.263419
    12  F   -0.225872
    13  H    0.170317
    14  H    0.175746
    15  H    0.175781
    16  H    0.275460
    17  H    0.214830
    18  H    0.183770
    19  H    0.191455
 Sum of Mulliken charges =  -0.00000

 Dipole moment (field-independent basis, Debye):
    X=              2.3609    Y=              2.6448    Z=             -0.0012  Tot=              3.5453
 Quadrupole moment (field-independent basis, Debye-Ang):
   XX=            -72.9397   YY=            -84.0834   ZZ=            -83.6594
   XY=             10.7769   XZ=             -0.0035   YZ=              0.0042

 Normal termination of Gaussian 16 at Tue Sep 17 10:39:58 2024.
