 Gaussian 16, Revision C.02,

 ----------------------------------------------------------------------
 #p B3LYP/gen pseudo=read EmpiricalDispersion=GD3BJ opt freq scf(xqc,ti
 ght) integral(grid=ultrafine)
 ----------------------------------------------------------------------

 ----------------------------------
 opt-freq conformers_unique/conf_ab
 ----------------------------------
 Symbolic Z-matrix:
 Charge =  0 Multiplicity = 1

 SCF Done:  E(RB3LYP) =  -917.127084071     A.U. after   13 cycles
 SCF Done:  E(RB3LYP) =  -917.128498319     A.U. after   12 cycles
 SCF Done:  E(RB3LYP) =  -917.128739117     A.U. after   10 cycles
 SCF Done:  E(RB3LYP) =  -917.128755240     A.U. after    8 cycles
 SCF Done:  E(RB3LYP) =  -917.128759885     A.U. after    9 cycles
 SCF Done:  E(RB3LYP) =  -917.128785602     A.U. after   12 cycles
 SCF Done:  E(RB3LYP) =  -917.128807354     A.U. after   12 cycles
 SCF Done:  E(RB3LYP) =  -917.128838642     A.U. after   11 cycles
 SCF Done:  E(RB3LYP) =  -917.128844947     A.U. after   12 cycles
 SCF Done:  E(RB3LYP) =  -917.108154030     A.U. after   14 cycles
 SCF Done:  E(RB3LYP) =  -917.129012340     A.U. after   11 cycles
 SCF Done:  E(RB3LYP) =  -917.129034642     A.U. after   12 cycles
 SCF Done:  E(RB3LYP) =  -917.129041025     A.U. after   11 cycles
 SCF Done:  E(RB3LYP) =  -917.129041389     A.U. after    9 cycles
 SCF Done:  E(RB3LYP) =  -917.129041664     A.U. after    9 cycles
 SCF Done:  E(RB3LYP) =  -917.129041685     A.U. after    7 cycles
 SCF Done:  E(RB3LYP) =  -917.129041692     A.U. after    7 cycles
 Optimization completed.
    -- Stationary point found.
 Normal termination of Gaussian 16 at Tue Sep 17 09:53:52 2024.

 ------------------------------------------------------------------
 #P Geom=AllCheck Guess=TCheck SCRF=Check GenChk RB3LYP/ChkBas Freq
 ------------------------------------------------------------------

 Structure from the checkpoint file:  "smiles_00015_conf_1.chk"
 ----------------------------------
 opt-freq conformers_unique/conf_ab
 ----------------------------------
 Charge =  0 Multiplicity = 1

 SCF Done:  E(RB3LYP) =  -917.129041692     A.U. after    1 cycles

                      1                      2                      3
                      A                      A                      A
 Frequencies --     13.4452                15.7710                78.2289
 Red. masses --     19.4425                18.8842                13.2273
 Frc consts  --      0.0021                 0.0028                 0.0477
 IR Inten    --      0.0114                 0.0288                 0.7816

                      4                      5                      6
                      A                      A                      A
 Frequencies --     99.3557               105.8229               145.2748
 Red. masses --     18.8448                20.2462                 7.5508
 Frc consts  --      0.1096                 0.1336                 0.0939
 IR Inten    --      0.0741                 0.7716                 0.0056

                      7                      8                      9
                      A                      A                      A
 Frequencies --    167.6841               213.1668               259.5480
 Red. masses --      5.1104                21.1564                11.9178
 Frc consts  --      0.0847                 0.5664                 0.4730
 IR Inten    --      0.2572                 0.2744                 1.0774

                     10                     11                     12
                      A                      A                      A
 Frequencies --    287.0334               311.6242               341.3887
 Red. masses --     12.9865                 5.6965                 8.2491
 Frc consts  --      0.6304                 0.3259                 0.5664
 IR Inten    --      1.2342                 0.0014                 1.1257

                     13                     14                     15
                      A                      A                      A
 Frequencies --    370.6737               408.6731               448.6281
 Red. masses --      8.1700                10.7780                 8.6460
 Frc consts  --      0.6614                 1.0606                 1.0253
 IR Inten    --      3.6789                 5.2618                 3.1551

                     16                     17                     18
                      A                      A                      A
 Frequencies --    497.0808               499.6074               566.5896
 Red. masses --     12.1002                 9.0481                15.4195
 Frc consts  --      1.7616                 1.3306                 2.9165
 IR Inten    --      0.0984                 4.8622                 0.0009

                     19                     20                     21
                      A                      A                      A
 Frequencies --    586.1016               603.9486               671.6319
 Red. masses --      8.2531                 8.9663                 7.6799
 Frc consts  --      1.6704                 1.9269                 2.0411
 IR Inten    --      1.2153                 0.6778                 1.8405

                     22                     23                     24
                      A                      A                      A
 Frequencies --    680.4287               692.3855               711.9741
 Red. masses --     13.1414                12.1689                 2.6399
 Frc consts  --      3.5847                 3.4371                 0.7884
 IR Inten    --     37.7893                56.2891                14.5197

                     25                     26                     27
                      A                      A                      A
 Frequencies --    779.1726               859.3389               902.3171
 Red. masses --     13.2163                11.9236                 1.5153
 Frc consts  --      4.7274                 5.1878                 0.7269
 IR Inten    --     29.4223                17.0026                36.1711

                     28                     29                     30
                      A                      A                      A
 Frequencies --    932.2390               936.7260              1016.7160
 Red. masses --      1.3610                 1.3813                 6.4379
 Frc consts  --      0.6969                 0.7141                 3.9210
 IR Inten    --      3.9818                 0.0163                 1.5706

                     31                     32                     33
                      A                      A                      A
 Frequencies --   1113.8966              1126.2643              1134.5700
 Red. masses --     11.9125                 1.8513                 1.8248
 Frc consts  --      8.7085                 1.3836                 1.3840
 IR Inten    --     21.4599                22.8719                 2.1272

                     34                     35                     36
                      A                      A                      A
 Frequencies --   1198.5625              1200.7203              1221.6747
 Red. masses --     12.9648                12.6550                 8.7371
 Frc consts  --     10.9733                10.7497                 7.6830
 IR Inten    --      0.1211               506.2605                97.5448

                     37                     38                     39
                      A                      A                      A
 Frequencies --   1229.5545              1295.5633              1300.6413
 Red. masses --      5.7545                 3.6505                 1.3781
 Frc consts  --      5.1257                 3.6101                 1.3736
 IR Inten    --    242.4033               584.0323                19.6911

                     40                     41                     42
                      A                      A                      A
 Frequencies --   1361.9923              1366.8544              1482.3058
 Red. masses --      5.0874                 5.3417                 4.1793
 Frc consts  --      5.5603                 5.8800                 5.4103
 IR Inten    --      3.0458               369.1895                 2.8791

                     43                     44                     45
                      A                      A                      A
 Frequencies --   1490.0973              1636.7275              1665.7820
 Red. masses --      3.8679                 6.7648                 6.1744
 Frc consts  --      5.0600                10.6771                10.0944
 IR Inten    --      4.6620                11.7696                 7.5325

                     46                     47                     48
                      A                      A                      A
 Frequencies --   3237.8070              3237.9439              3242.1740
 Red. masses --      1.0917                 1.0926                 1.0917
 Frc consts  --      6.7432                 6.7494                 6.7613
 IR Inten    --      0.7087                 1.4283                 0.9228

 - Thermochemistry -
 -------------------
 Temperature   298.150 Kelvin.  Pressure   1.00000 Atm.
 Atom     1 has atomic number  9 and mass  18.99840

 Molecular mass:   339.91429 amu.
 Principal axes and moments of inertia in atomic units:
                           1         2         3
     Eigenvalues --  4731.988427295.30911**********
           X            1.00000  -0.00000  -0.00000
           Y            0.00000   1.00000   0.00038
           Z            0.00000  -0.00038   1.00000
 This molecule is an asymmetric top.
 Rotational symmetry number  1.
 Warning -- assumption of classical behavior for rotation
           may cause significant error
 Rotational temperatures (Kelvin)      0.01830     0.01187     0.00761
 Rotational constants (GHZ):           0.38139     0.24738     0.15848
 Zero-point vibrational energy     261657.4 (Joules/Mol)
                                   62.53763 (Kcal/Mol)
 Warning -- explicit consideration of  20 degrees of freedom as
           vibrations may cause significant error
 Vibrational temperatures:     19.34    22.69   112.55   142.95   152.26
          (Kelvin)            209.02   241.26   306.70   373.43   412.98
                              448.36   491.18   533.32   587.99   645.48
                              715.19   718.82   815.20   843.27   868.95
                              966.33   978.99   996.19  1024.37  1121.06
                             1236.40  1298.23  1341.28  1347.74  1462.83
                             1602.65  1620.44  1632.39  1724.46  1727.57
                             1757.72  1769.05  1864.03  1871.33  1959.60
                             1966.60  2132.71  2143.92  2354.89  2396.69
                             4658.48  4658.68  4664.77

 Zero-point correction=                           0.099660 (Hartree/Particle)
 Thermal correction to Energy=                    0.112890
 Thermal correction to Enthalpy=                  0.113835
 Thermal correction to Gibbs Free Energy=         0.054892
 Sum of electronic and zero-point Energies=           -917.029382
 Sum of electronic and thermal Energies=              -917.016151
 Sum of electronic and thermal Enthalpies=            -917.015207
 Sum of electronic and thermal Free Energies=         -917.074149

                     E (Thermal)             CV                S
                      KCal/Mol        Cal/Mol-Kelvin    Cal/Mol-Kelvin
 Total                   70.840             46.894            124.054
 Electronic               0.000              0.000              0.000
 Translational            0.889              2.981             43.365
 Rotational               0.889              2.981             34.329
 Vibrational             69.062             40.932             46.360
 Vibration     1          0.593              1.987              7.423
 Vibration     2          0.593              1.986              7.106
 Vibration     3          0.600              1.964              3.935
 Vibration     4          0.604              1.950              3.467
 Vibration     5          0.605              1.945              3.344
 Vibration     6          0.617              1.908              2.733
 Vibration     7          0.624              1.882              2.461
 Vibration     8          0.644              1.821              2.016
 Vibration     9          0.668              1.747              1.665
 Vibration    10          0.684              1.698              1.491
 Vibration    11          0.700              1.652              1.354
 Vibration    12          0.721              1.593              1.206
 Vibration    13          0.743              1.532              1.077
 Vibration    14          0.773              1.451              0.931
 Vibration    15          0.808              1.364              0.800
 Vibration    16          0.853              1.256              0.665
 Vibration    17          0.855              1.251              0.659
 Vibration    18          0.923              1.104              0.511
 Vibration    19          0.943              1.061              0.474
 Vibration    20          0.962              1.023              0.443

 Optimization completed.
    -- Stationary point found.
 Normal termination of Gaussian 16 at Tue Sep 17 09:54:55 2024.

 ----------------------------------------------------------------------
 #p M062X/def2tzvp geom=check guess=read scf(xqc,tight) integral(grid=u
 ltrafine) scrf(SMD, solvent=1,4-Dioxane) polar prop=efg volume
 ----------------------------------------------------------------------

 ---
 spe
 ---
 Structure from the checkpoint file:  "smiles_00015_conf_1.chk"
 Charge =  0 Multiplicity = 1

 SCF Done:  E(RM062X) =  -1203.43600832     A.U. after   21 cycles

  Exact polarizability:     191.590       0.000     146.076       0.000       0.893      87.828
 Approx polarizability:     199.996       0.000     164.230       0.000       1.488     111.403

 1\1\GINC-HPC-52-04\SP\RM062X\def2TZVP\C8H3F6I1\MANTIND\17-Sep-2024\0\\
 #p M062X/def2tzvp geom=check guess=read scf(xqc,tight) integral(grid=u
 ltrafine) scrf(SMD, solvent=1,4-Dioxane) polar prop=efg volume\\spe\\0
 ,1\F,0,1.5250542818,3.4636396592,-0.4293912546\C,0,2.052667598,2.50388
 02747,0.3587384945\F,0,3.3564447267,2.3751657091,0.0375505496\F,0,1.99
 7475437,2.9569500957,1.6299829391\C,0,1.3147229378,1.1982324654,0.2131
 149757\C,0,-0.0506230888,1.2121558238,-0.0795867745\C,0,-0.7381127225,
 0.0029562655,-0.1511028372\I,0,-2.8249920299,0.007418061,-0.5950640653

 Normal termination of Gaussian 16 at Tue Sep 17 10:57:33 2024.
 Gaussian 16:  ES64L-G16RevC.02  7-Dec-2021

 ----------------------------------------------------------------------
 #p M062X/def2tzvp geom=check guess=read scf(xqc,tight) integral(grid=u
 ltrafine) scrf(SMD, solvent=1,4-Dioxane) nmr=giao
 ----------------------------------------------------------------------

 ---
 spe
 ---
 Structure from the checkpoint file:  "smiles_00015_conf_1.chk"
 Charge =  0 Multiplicity = 1

                         Standard orientation:
 ---------------------------------------------------------------------
 Center     Atomic      Atomic             Coordinates (Angstroms)
 Number     Number       Type             X           Y           Z
 ---------------------------------------------------------------------
      1          9           0       -1.255603   -3.487080   -0.632568
      2          6           0       -1.937678   -2.508215   -0.002283
      3          9           0       -3.146350   -2.400717   -0.591451
      4          9           0       -2.147267   -2.921595    1.266405
      5          6           0       -1.188327   -1.201298   -0.032736
      6          6           0        0.208065   -1.212353   -0.034574
      7          6           0        0.892847   -0.000000   -0.000001
      8         53           0        3.026432    0.000018    0.000000
      9          6           0        0.208050    1.212349    0.034568
     10          6           0       -1.188339    1.201281    0.032732
     11          6           0       -1.937712    2.508189    0.002288
     12          9           0       -2.147352    2.921550   -1.266397
     13          9           0       -1.255653    3.487086    0.632536
     14          9           0       -3.146374    2.400692    0.591479
     15          6           0       -1.893556   -0.000014   -0.000003
     16          1           0        0.741328   -2.154007   -0.067729
     17          1           0        0.741308    2.154005    0.067721
     18          1           0       -2.976274   -0.000018    0.000001
 ---------------------------------------------------------------------

 SCF Done:  E(RM062X) =  -1203.43600832     A.U. after    1 cycles

      1  F    Isotropic =   249.9476   Anisotropy =   137.2312

      2  C    Isotropic =    51.0751   Anisotropy =    12.5762

      3  F    Isotropic =   250.2001   Anisotropy =   137.3100

      4  F    Isotropic =   225.5098   Anisotropy =   148.1332

      5  C    Isotropic =    29.0537   Anisotropy =   186.4255

      6  C    Isotropic =    24.5899   Anisotropy =   195.7324

      7  C    Isotropic =    24.1479   Anisotropy =   157.9577

      8  I    Isotropic =   431.6722   Anisotropy =    76.5407

      9  C    Isotropic =    24.5901   Anisotropy =   195.7318

     10  C    Isotropic =    29.0543   Anisotropy =   186.4246

     11  C    Isotropic =    51.0752   Anisotropy =    12.5762

     12  F    Isotropic =   225.5085   Anisotropy =   148.1348

     13  F    Isotropic =   249.9491   Anisotropy =   137.2303

     14  F    Isotropic =   250.1981   Anisotropy =   137.3136

     15  C    Isotropic =    39.8569   Anisotropy =   220.7870

     16  H    Isotropic =    22.9837   Anisotropy =    15.5830

     17  H    Isotropic =    22.9838   Anisotropy =    15.5830

     18  H    Isotropic =    23.1175   Anisotropy =    12.1395

 The electronic state is 1-A.
 Alpha  occ. eigenvalues --  -25.29257 -25.29257 -25.29244 -25.29244 -25.28942
 Alpha  occ. eigenvalues --  -25.28941 -10.81434 -10.81434 -10.62493 -10.59958
 Alpha  occ. eigenvalues --  -10.59957 -10.59147 -10.59145 -10.59013  -7.12050
 Alpha  occ. eigenvalues --   -5.11434  -5.10332  -5.10323  -2.08259  -2.07806
 Alpha  occ. eigenvalues --   -2.07804  -2.06885  -2.06883  -1.47345  -1.47342
 Alpha  occ. eigenvalues --   -1.38551  -1.38549  -1.38220  -1.38220  -1.01791
 Alpha  occ. eigenvalues --   -0.92967  -0.91077  -0.83316  -0.82359  -0.80012
 Alpha  occ. eigenvalues --   -0.75037  -0.74071  -0.70410  -0.70196  -0.70192
 Alpha  occ. eigenvalues --   -0.70142  -0.66803  -0.63778  -0.61120  -0.59321
 Alpha  occ. eigenvalues --   -0.58661  -0.58389  -0.58181  -0.56718  -0.54735
 Alpha  occ. eigenvalues --   -0.54569  -0.54543  -0.53602  -0.52718  -0.52690
 Alpha  occ. eigenvalues --   -0.51325  -0.50224  -0.49868  -0.48613  -0.45095
 Alpha  occ. eigenvalues --   -0.41553  -0.38061  -0.35555  -0.33706  -0.31452
 Alpha virt. eigenvalues --   -0.03315  -0.02528  -0.02020   0.08828   0.11018
 Alpha virt. eigenvalues --    0.11100   0.11888   0.13116   0.14270   0.15131
 Alpha virt. eigenvalues --    0.16156   0.16528   0.17430   0.18652   0.18819

 Mulliken charges:
               1
     1  F   -0.180796
     2  C    0.509755
     3  F   -0.179880
     4  F   -0.176492
     5  C    0.027209
     6  C   -0.229510
     7  C    0.102595
     8  I   -0.052043
     9  C   -0.229508
    10  C    0.027205
    11  C    0.509755
    12  F   -0.176494
    13  F   -0.180796
    14  F   -0.179882
    15  C   -0.224172
    16  H    0.211898
    17  H    0.211898
    18  H    0.209257
 Sum of Mulliken charges =  -0.00000

 Dipole moment (field-independent basis, Debye):
    X=              1.5951    Y=             -0.0001    Z=              0.0000  Tot=              1.5951
 Quadrupole moment (field-independent basis, Debye-Ang):
   XX=           -103.6512   YY=           -111.1878   ZZ=           -106.1574
   XY=              0.0003   XZ=             -0.0000   YZ=              0.4545

 1\1\GINC-HPC-52-04\SP\RM062X\def2TZVP\C8H3F6I1\MANTIND\17-Sep-2024\0\\
 #p M062X/def2tzvp geom=check guess=read scf(xqc,tight) integral(grid=u
 ltrafine) scrf(SMD, solvent=1,4-Dioxane) nmr=giao\\spe\\0,1\F,0,1.5250
 542818,3.4636396592,-0.4293912546\C,0,2.052667598,2.5038802747,0.35873
 84945\F,0,3.3564447267,2.3751657091,0.0375505496\F,0,1.997475437,2.956
 9500957,1.6299829391\C,0,1.3147229378,1.1982324654,0.2131149757\C,0,-0
 .0506230888,1.2121558238,-0.0795867745\C,0,-0.7381127225,0.0029562655,
 -0.1511028372\I,0,-2.8249920299,0.007418061,-0.5950640653\C,0,-0.08600

 Normal termination of Gaussian 16 at Tue Sep 17 11:15:58 2024.
