 Gaussian 16, Revision C.02,

 ----------------------------------------------------------------------
 #p B3LYP/6-31G(d,p) EmpiricalDispersion=GD3BJ opt freq scf(xqc,tight)
 integral(grid=ultrafine)
 ----------------------------------------------------------------------

 ----------------------------------
 opt-freq conformers_unique/conf_ac
 ----------------------------------
 Symbolic Z-matrix:
 Charge =  0 Multiplicity = 1

 SCF Done:  E(RB3LYP) =  -2933.94084715     A.U. after   14 cycles
 SCF Done:  E(RB3LYP) =  -2933.94200253     A.U. after   11 cycles
 SCF Done:  E(RB3LYP) =  -2933.94207223     A.U. after   11 cycles
 SCF Done:  E(RB3LYP) =  -2933.94209152     A.U. after   10 cycles
 SCF Done:  E(RB3LYP) =  -2933.94209343     A.U. after    8 cycles
 SCF Done:  E(RB3LYP) =  -2933.94210285     A.U. after    9 cycles
 SCF Done:  E(RB3LYP) =  -2933.85701780     A.U. after   14 cycles
 SCF Done:  E(RB3LYP) =  -2933.94222003     A.U. after   12 cycles
 SCF Done:  E(RB3LYP) =  -2933.94112555     A.U. after   14 cycles
 SCF Done:  E(RB3LYP) =  -2933.94311663     A.U. after   12 cycles
 SCF Done:  E(RB3LYP) =  -2933.94650242     A.U. after   14 cycles
 SCF Done:  E(RB3LYP) =  -2933.94685825     A.U. after   11 cycles
 SCF Done:  E(RB3LYP) =  -2933.94722817     A.U. after   12 cycles
 SCF Done:  E(RB3LYP) =  -2933.94743630     A.U. after   12 cycles
 SCF Done:  E(RB3LYP) =  -2933.94754083     A.U. after   11 cycles
 SCF Done:  E(RB3LYP) =  -2933.94756705     A.U. after   10 cycles
 SCF Done:  E(RB3LYP) =  -2933.94756970     A.U. after    9 cycles
 Optimization completed.
    -- Stationary point found.
 Normal termination of Gaussian 16 at Tue Sep 17 09:49:24 2024.

 ----------------------------------------------------------------------
 #P Geom=AllCheck Guess=TCheck SCRF=Check GenChk RB3LYP/6-31G(d,p) Freq
 ----------------------------------------------------------------------

 Structure from the checkpoint file:  "smiles_00099_conf_2.chk"
 ----------------------------------
 opt-freq conformers_unique/conf_ac
 ----------------------------------
 Charge =  0 Multiplicity = 1

 SCF Done:  E(RB3LYP) =  -2933.94756970     A.U. after    1 cycles

                      1                      2                      3
                      A                      A                      A
 Frequencies --     78.6938               171.0465               179.4436
 Red. masses --      3.2830                 6.2798                 3.7678
 Frc consts  --      0.0120                 0.1082                 0.0715
 IR Inten    --      2.8798                 0.3010                 0.6572

                      4                      5                      6
                      A                      A                      A
 Frequencies --    211.9320               278.1160               280.6245
 Red. masses --      2.0849                 4.5090                 1.5174
 Frc consts  --      0.0552                 0.2055                 0.0704
 IR Inten    --      1.7108                 4.7501                 0.5798

                      7                      8                      9
                      A                      A                      A
 Frequencies --    312.7525               468.6002               474.4837
 Red. masses --      6.9103                 4.7984                 4.9255
 Frc consts  --      0.3982                 0.6208                 0.6533
 IR Inten    --      1.7657                 0.8217                 0.7644

                     10                     11                     12
                      A                      A                      A
 Frequencies --    572.3456               584.3095               670.7588
 Red. masses --      5.2663                 5.3367                 9.5650
 Frc consts  --      1.0164                 1.0735                 2.5355
 IR Inten    --     13.0825                 2.4488                 1.5366

                     13                     14                     15
                      A                      A                      A
 Frequencies --    715.2044               862.1953               882.2794
 Red. masses --      2.5350                 7.9725                 1.5489
 Frc consts  --      0.7640                 3.4918                 0.7104
 IR Inten    --     10.6926                43.4953                25.2367

                     16                     17                     18
                      A                      A                      A
 Frequencies --    916.8811               935.5202              1025.8488
 Red. masses --      1.3592                 1.4222                 4.6269
 Frc consts  --      0.6732                 0.7334                 2.8688
 IR Inten    --      7.2791                 0.0053                35.1481

                     19                     20                     21
                      A                      A                      A
 Frequencies --   1076.8430              1110.2175              1178.9756
 Red. masses --      7.2754                 1.8073                 1.2720
 Frc consts  --      4.9706                 1.3125                 1.0417
 IR Inten    --    127.5515                17.9429                 0.7669

                     22                     23                     24
                      A                      A                      A
 Frequencies --   1192.1482              1224.6889              1279.6316
 Red. masses --      1.9179                 1.5111                 2.8913
 Frc consts  --      1.6060                 1.3353                 2.7894
 IR Inten    --     14.7824                 8.3595                26.2515

                     25                     26                     27
                      A                      A                      A
 Frequencies --   1324.5414              1347.7330              1465.8355
 Red. masses --      5.0744                 1.5179                 2.1118
 Frc consts  --      5.2453                 1.6244                 2.6735
 IR Inten    --    125.1255                55.8625                84.8135

                     28                     29                     30
                      A                      A                      A
 Frequencies --   1482.0804              1506.0705              1506.8504
 Red. masses --      1.6431                 1.0458                 1.8537
 Frc consts  --      2.1265                 1.3977                 2.4799
 IR Inten    --     35.7626                 6.6579                61.0187

                     31                     32                     33
                      A                      A                      A
 Frequencies --   1519.7370              1603.2010              1636.9275
 Red. masses --      1.0984                 6.2351                 6.0688
 Frc consts  --      1.4947                 9.4422                 9.5811
 IR Inten    --     10.2509                 2.8261               129.7795

                     34                     35                     36
                      A                      A                      A
 Frequencies --   3025.8614              3091.9174              3160.9093
 Red. masses --      1.0343                 1.1067                 1.1010
 Frc consts  --      5.5793                 6.2333                 6.4810
 IR Inten    --     46.2533                34.5368                21.0026

                     37                     38                     39
                      A                      A                      A
 Frequencies --   3197.6582              3204.0139              3233.1486
 Red. masses --      1.0902                 1.0914                 1.0928
 Frc consts  --      6.5677                 6.6012                 6.7306
 IR Inten    --     10.9347                12.6258                 0.5492

 - Thermochemistry -
 -------------------
 Temperature   298.150 Kelvin.  Pressure   1.00000 Atm.
 Atom     1 has atomic number  6 and mass  12.00000

 Molecular mass:   186.96327 amu.
 Principal axes and moments of inertia in atomic units:
                           1         2         3
     Eigenvalues --   589.601003381.104643959.19527
           X            0.99983  -0.01831  -0.00000
           Y            0.01831   0.99983   0.00000
           Z            0.00000  -0.00000   1.00000
 This molecule is an asymmetric top.
 Rotational symmetry number  1.
 Warning -- assumption of classical behavior for rotation
           may cause significant error
 Rotational temperatures (Kelvin)      0.14690     0.02562     0.02188
 Rotational constants (GHZ):           3.06095     0.53377     0.45584
 Zero-point vibrational energy     293025.4 (Joules/Mol)
                                   70.03476 (Kcal/Mol)
 Warning -- explicit consideration of  11 degrees of freedom as
           vibrations may cause significant error
 Vibrational temperatures:    113.22   246.10   258.18   304.92   400.15
          (Kelvin)            403.76   449.98   674.21   682.68   823.48
                              840.69   965.07  1029.02  1240.51  1269.40
                             1319.19  1346.00  1475.97  1549.34  1597.36
                             1696.28  1715.24  1762.05  1841.10  1905.72
                             1939.09  2109.01  2132.38  2166.90  2168.02
                             2186.56  2306.65  2355.17  4353.54  4448.58
                             4547.84  4600.72  4609.86  4651.78

 Zero-point correction=                           0.111607 (Hartree/Particle)
 Thermal correction to Energy=                    0.119741
 Thermal correction to Enthalpy=                  0.120686
 Thermal correction to Gibbs Free Energy=         0.077312
 Sum of electronic and zero-point Energies=          -2933.835962
 Sum of electronic and thermal Energies=             -2933.827828
 Sum of electronic and thermal Enthalpies=           -2933.826884
 Sum of electronic and thermal Free Energies=        -2933.870258

                     E (Thermal)             CV                S
                      KCal/Mol        Cal/Mol-Kelvin    Cal/Mol-Kelvin
 Total                   75.139             29.485             91.288
 Electronic               0.000              0.000              0.000
 Translational            0.889              2.981             41.583
 Rotational               0.889              2.981             30.446
 Vibrational             73.361             23.523             19.259
 Vibration     1          0.600              1.963              3.923
 Vibration     2          0.626              1.878              2.424
 Vibration     3          0.629              1.868              2.334
 Vibration     4          0.643              1.823              2.027
 Vibration     5          0.679              1.714              1.545
 Vibration     6          0.680              1.709              1.530
 Vibration     7          0.701              1.649              1.348
 Vibration     8          0.826              1.320              0.741
 Vibration     9          0.831              1.307              0.725
 Vibration    10          0.929              1.091              0.500
 Vibration    11          0.941              1.065              0.477

 Optimization completed.
    -- Stationary point found.
 Normal termination of Gaussian 16 at Tue Sep 17 09:50:03 2024.

 ----------------------------------------------------------------------
 #p M062X/def2tzvp geom=check guess=read scf(xqc,tight) integral(grid=u
 ltrafine) scrf(SMD, solvent=1,4-Dioxane) polar prop=efg volume
 ----------------------------------------------------------------------

 ---
 spe
 ---
 Structure from the checkpoint file:  "smiles_00099_conf_2.chk"
 Charge =  0 Multiplicity = 1

 SCF Done:  E(RM062X) =  -2936.39260961     A.U. after   12 cycles

  Exact polarizability:     165.954       1.085     111.449      -0.000      -0.001      67.058
 Approx polarizability:     165.646       2.059     134.180      -0.000      -0.002      81.864

 Normal termination of Gaussian 16 at Tue Sep 17 10:09:17 2024.
 Gaussian 16:  ES64L-G16RevC.02  7-Dec-2021

 ----------------------------------------------------------------------
 #p M062X/def2tzvp geom=check guess=read scf(xqc,tight) integral(grid=u
 ltrafine) scrf(SMD, solvent=1,4-Dioxane) nmr=giao
 ----------------------------------------------------------------------

 ---
 spe
 ---
 Structure from the checkpoint file:  "smiles_00099_conf_2.chk"
 Charge =  0 Multiplicity = 1

                         Standard orientation:
 ---------------------------------------------------------------------
 Center     Atomic      Atomic             Coordinates (Angstroms)
 Number     Number       Type             X           Y           Z
 ---------------------------------------------------------------------
      1          6           0        4.043725   -0.716161    0.000022
      2          8           0        2.694603   -1.168680   -0.000069
      3          6           0        1.712285   -0.231965    0.000167
      4          6           0        1.916574    1.155072   -0.000097
      5          7           0        0.907200    2.034314   -0.000045
      6          6           0       -0.345968    1.583293    0.000118
      7          6           0       -0.630864    0.214498   -0.000013
      8         35           0       -2.446752   -0.368401   -0.000033
      9          6           0        0.396988   -0.713193    0.000141
     10          1           0        4.659817   -1.615268   -0.000283
     11          1           0        4.266162   -0.121663   -0.894018
     12          1           0        4.266152   -0.122011    0.894334
     13          1           0        2.916037    1.576842   -0.000620
     14          1           0       -1.146787    2.316270    0.000485
     15          1           0        0.211276   -1.780159    0.000104
 ---------------------------------------------------------------------

 SCF Done:  E(RM062X) =  -2936.39260961     A.U. after    1 cycles

      1  C    Isotropic =   128.7033   Anisotropy =    75.5189

      2  O    Isotropic =   231.0306   Anisotropy =    84.5402

      3  C    Isotropic =     7.9940   Anisotropy =   164.3942

      4  C    Isotropic =    33.5045   Anisotropy =   179.1034

      5  N    Isotropic =  -151.3020   Anisotropy =   658.0251

      6  C    Isotropic =    18.5763   Anisotropy =   166.1020

      7  C    Isotropic =    27.3620   Anisotropy =   145.1808

      8  Br   Isotropic =  2128.8841   Anisotropy =  1215.6159

      9  C    Isotropic =    35.9757   Anisotropy =   169.3849

     10  H    Isotropic =    27.7605   Anisotropy =     8.1419

     11  H    Isotropic =    28.0729   Anisotropy =     8.1134

     12  H    Isotropic =    28.0729   Anisotropy =     8.1145

     13  H    Isotropic =    22.8399   Anisotropy =     9.2345

     14  H    Isotropic =    22.7040   Anisotropy =    10.9563

     15  H    Isotropic =    23.7610   Anisotropy =    11.5362

 The electronic state is 1-A.
 Alpha  occ. eigenvalues -- -485.38239 -63.36716 -57.18664 -57.18423 -57.18417
 Alpha  occ. eigenvalues --  -19.67149 -14.76520 -10.62421 -10.61280 -10.59480
 Alpha  occ. eigenvalues --  -10.58398 -10.58302 -10.56968  -9.03361  -6.85780
 Alpha  occ. eigenvalues --   -6.84886  -6.84865  -2.89156  -2.88833  -2.88808
 Alpha  occ. eigenvalues --   -2.87976  -2.87976  -1.20578  -1.06480  -0.94103
 Alpha  occ. eigenvalues --   -0.89418  -0.83537  -0.80757  -0.73201  -0.69353
 Alpha  occ. eigenvalues --   -0.61945  -0.59647  -0.58307  -0.56085  -0.50835
 Alpha  occ. eigenvalues --   -0.50070  -0.49084  -0.48687  -0.44542  -0.43271
 Alpha  occ. eigenvalues --   -0.42335  -0.39909  -0.36154  -0.33550  -0.32595
 Alpha  occ. eigenvalues --   -0.29615
 Alpha virt. eigenvalues --   -0.01048   0.01521   0.03184   0.07594   0.10381
 Alpha virt. eigenvalues --    0.11109   0.12627   0.13342   0.14841   0.14896
 Alpha virt. eigenvalues --    0.15492   0.16838   0.17252   0.21385   0.22657

 Mulliken charges:
               1
     1  C   -0.311896
     2  O   -0.279163
     3  C    0.261012
     4  C   -0.140821
     5  N   -0.232406
     6  C   -0.097293
     7  C    0.061440
     8  Br  -0.092780
     9  C   -0.215837
    10  H    0.166369
    11  H    0.165295
    12  H    0.165331
    13  H    0.178995
    14  H    0.176490
    15  H    0.195266
 Sum of Mulliken charges =  -0.00000

 Dipole moment (field-independent basis, Debye):
    X=              2.9364    Y=             -1.2625    Z=              0.0002  Tot=              3.1963
 Quadrupole moment (field-independent basis, Debye-Ang):
   XX=            -50.5930   YY=            -69.5515   ZZ=            -67.0457
   XY=             -2.2811   XZ=             -0.0017   YZ=              0.0003

 Normal termination of Gaussian 16 at Tue Sep 17 10:15:59 2024.
