 Gaussian 16, Revision C.02,

 ----------------------------------------------------------------------
 #p B3LYP/gen pseudo=read EmpiricalDispersion=GD3BJ opt freq scf(xqc,ti
 ght) integral(grid=ultrafine)
 ----------------------------------------------------------------------

 ----------------------------------
 opt-freq conformers_unique/conf_aa
 ----------------------------------
 Symbolic Z-matrix:
 Charge =  0 Multiplicity = 1

 SCF Done:  E(RB3LYP) =  -580.085062416     A.U. after   14 cycles
 SCF Done:  E(RB3LYP) =  -580.086476256     A.U. after   13 cycles
 SCF Done:  E(RB3LYP) =  -580.087132649     A.U. after   12 cycles
 SCF Done:  E(RB3LYP) =  -580.087179260     A.U. after   10 cycles
 SCF Done:  E(RB3LYP) =  -580.087181100     A.U. after    8 cycles
 Optimization completed.
    -- Stationary point found.
 Normal termination of Gaussian 16 at Tue Sep 17 09:45:55 2024.

 ------------------------------------------------------------------
 #P Geom=AllCheck Guess=TCheck SCRF=Check GenChk RB3LYP/ChkBas Freq
 ------------------------------------------------------------------

 Structure from the checkpoint file:  "smiles_00026_conf_0.chk"
 ----------------------------------
 opt-freq conformers_unique/conf_aa
 ----------------------------------
 Charge =  0 Multiplicity = 1

 SCF Done:  E(RB3LYP) =  -580.087181100     A.U. after    1 cycles

                      1                      2                      3
                      A                      A                      A
 Frequencies --     54.1119               104.4296               124.3755
 Red. masses --     17.4480                 4.6206                23.5714
 Frc consts  --      0.0301                 0.0297                 0.2148
 IR Inten    --      0.0014                 0.0977                 0.2873

                      4                      5                      6
                      A                      A                      A
 Frequencies --    163.5310               227.7014               261.8337
 Red. masses --      7.1632                12.6930                 7.8131
 Frc consts  --      0.1129                 0.3877                 0.3156
 IR Inten    --      0.3509                 0.8578                 0.1775

                      7                      8                      9
                      A                      A                      A
 Frequencies --    334.7145               370.8180               419.6156
 Red. masses --      6.0206                 9.6150                 9.5640
 Frc consts  --      0.3974                 0.7790                 0.9922
 IR Inten    --      0.3281                 6.3291                 1.5112

                     10                     11                     12
                      A                      A                      A
 Frequencies --    449.8255               502.9926               575.8197
 Red. masses --      3.8670                 7.2069                12.7128
 Frc consts  --      0.4610                 1.0743                 2.4835
 IR Inten    --      2.9350                 2.4784                 0.3187

                     13                     14                     15
                      A                      A                      A
 Frequencies --    599.9126               649.8614               677.6539
 Red. masses --      5.3388                 7.0296                 9.0064
 Frc consts  --      1.1321                 1.7491                 2.4368
 IR Inten    --      3.1216                12.1165                20.8086

                     16                     17                     18
                      A                      A                      A
 Frequencies --    736.5560               780.2636               783.0533
 Red. masses --      3.4433                 1.3760                 9.9499
 Frc consts  --      1.1006                 0.4936                 3.5946
 IR Inten    --      3.8920                44.2328                 2.4239

                     19                     20                     21
                      A                      A                      A
 Frequencies --    890.1096               969.5877              1003.6507
 Red. masses --      1.3319                 1.3561                 1.2977
 Frc consts  --      0.6218                 0.7511                 0.7702
 IR Inten    --      0.7363                 2.9877                 0.0210

                     22                     23                     24
                      A                      A                      A
 Frequencies --   1018.7623              1068.6512              1112.9016
 Red. masses --      7.9621                 4.0218                 2.4095
 Frc consts  --      4.8688                 2.7061                 1.7583
 IR Inten    --     57.7045                26.4554                46.8013

                     25                     26                     27
                      A                      A                      A
 Frequencies --   1142.1548              1196.3164              1206.3878
 Red. masses --      2.0034                 1.1157                12.8620
 Frc consts  --      1.5398                 0.9408                11.0289
 IR Inten    --     32.0041                 2.8849               257.4952

                     28                     29                     30
                      A                      A                      A
 Frequencies --   1219.7573              1295.1566              1332.8936
 Red. masses --      3.9571                 1.6733                 3.5804
 Frc consts  --      3.4688                 1.6537                 3.7477
 IR Inten    --    135.6670                45.9006               186.7591

                     31                     32                     33
                      A                      A                      A
 Frequencies --   1345.7729              1476.7313              1513.2760
 Red. masses --      7.7069                 2.2025                 2.5750
 Frc consts  --      8.2239                 2.8299                 3.4743
 IR Inten    --     76.6008                41.4329                13.5474

                     34                     35                     36
                      A                      A                      A
 Frequencies --   1626.7031              1648.7513              3197.3565
 Red. masses --      5.8020                 6.0757                 1.0870
 Frc consts  --      9.0457                 9.7309                 6.5471
 IR Inten    --     19.6717                24.7468                 2.7399

                     37                     38                     39
                      A                      A                      A
 Frequencies --   3213.3029              3225.6542              3239.3563
 Red. masses --      1.0926                 1.0948                 1.0930
 Frc consts  --      6.6466                 6.7115                 6.7574
 IR Inten    --      8.6217                 5.1278                 2.3508

 - Thermochemistry -
 -------------------
 Temperature   298.150 Kelvin.  Pressure   1.00000 Atm.
 Atom     1 has atomic number  9 and mass  18.99840

 Molecular mass:   271.92691 amu.
 Principal axes and moments of inertia in atomic units:
                           1         2         3
     Eigenvalues --  1936.351943091.594034706.82246
           X            0.99670  -0.08122  -0.00009
           Y            0.08122   0.99670  -0.00001
           Z            0.00009   0.00000   1.00000
 This molecule is an asymmetric top.
 Rotational symmetry number  1.
 Warning -- assumption of classical behavior for rotation
           may cause significant error
 Rotational temperatures (Kelvin)      0.04473     0.02802     0.01840
 Rotational constants (GHZ):           0.93203     0.58376     0.38343
 Zero-point vibrational energy     249782.1 (Joules/Mol)
                                   59.69935 (Kcal/Mol)
 Warning -- explicit consideration of  13 degrees of freedom as
           vibrations may cause significant error
 Vibrational temperatures:     77.86   150.25   178.95   235.28   327.61
          (Kelvin)            376.72   481.58   533.52   603.73   647.20
                              723.69   828.48   863.14   935.01   974.99
                             1059.74  1122.63  1126.64  1280.67  1395.02
                             1444.03  1465.77  1537.55  1601.22  1643.31
                             1721.23  1735.72  1754.96  1863.44  1917.74
                             1936.27  2124.69  2177.27  2340.46  2372.19
                             4600.28  4623.23  4641.00  4660.71

 Zero-point correction=                           0.095137 (Hartree/Particle)
 Thermal correction to Energy=                    0.104507
 Thermal correction to Enthalpy=                  0.105451
 Thermal correction to Gibbs Free Energy=         0.058230
 Sum of electronic and zero-point Energies=           -579.992044
 Sum of electronic and thermal Energies=              -579.982675
 Sum of electronic and thermal Enthalpies=            -579.981730
 Sum of electronic and thermal Free Energies=         -580.028951

                     E (Thermal)             CV                S
                      KCal/Mol        Cal/Mol-Kelvin    Cal/Mol-Kelvin
 Total                   65.579             34.185             99.385
 Electronic               0.000              0.000              0.000
 Translational            0.889              2.981             42.700
 Rotational               0.889              2.981             31.711
 Vibrational             63.801             28.224             24.975
 Vibration     1          0.596              1.976              4.661
 Vibration     2          0.605              1.946              3.370
 Vibration     3          0.610              1.929              3.031
 Vibration     4          0.623              1.887              2.509
 Vibration     5          0.651              1.799              1.897
 Vibration     6          0.669              1.743              1.650
 Vibration     7          0.716              1.606              1.237
 Vibration     8          0.743              1.532              1.076
 Vibration     9          0.782              1.428              0.893
 Vibration    10          0.809              1.361              0.796
 Vibration    11          0.858              1.243              0.651
 Vibration    12          0.932              1.084              0.493
 Vibration    13          0.958              1.032              0.450

 Optimization completed.
    -- Stationary point found.
 Normal termination of Gaussian 16 at Tue Sep 17 09:46:41 2024.

 ----------------------------------------------------------------------
 #p M062X/def2tzvp geom=check guess=read scf(xqc,tight) integral(grid=u
 ltrafine) scrf(SMD, solvent=1,4-Dioxane) polar prop=efg volume
 ----------------------------------------------------------------------

 ---
 spe
 ---
 Structure from the checkpoint file:  "smiles_00026_conf_0.chk"
 Charge =  0 Multiplicity = 1

 SCF Done:  E(RM062X) =  -866.344581413     A.U. after   22 cycles

  Exact polarizability:     169.787     -16.417     137.471       0.009      -0.001      75.888
 Approx polarizability:     182.057     -12.128     154.192       0.008      -0.000      97.027

 1\1\GINC-HPC-34-31\SP\RM062X\def2TZVP\C7H4F3I1\MANTIND\17-Sep-2024\0\\
 #p M062X/def2tzvp geom=check guess=read scf(xqc,tight) integral(grid=u
 ltrafine) scrf(SMD, solvent=1,4-Dioxane) polar prop=efg volume\\spe\\0
 ,1\F,0,0.7393855057,-1.8991505907,1.0877701211\C,0,1.3703054437,-1.412
 8001695,0.0000194916\F,0,0.7395839989,-1.8991617195,-1.0878277978\F,0,
 2.6151257075,-1.9401939017,0.0001382996\C,0,1.4127036206,0.0989960439,
 0.0000197566\C,0,2.6647378288,0.724890105,0.0001432203\C,0,2.776140127
 8,2.1123053202,0.0001442057\C,0,1.6244722921,2.8950291184,0.0000194586

 Normal termination of Gaussian 16 at Tue Sep 17 10:20:18 2024.
 Gaussian 16:  ES64L-G16RevC.02  7-Dec-2021

 ----------------------------------------------------------------------
 #p M062X/def2tzvp geom=check guess=read scf(xqc,tight) integral(grid=u
 ltrafine) scrf(SMD, solvent=1,4-Dioxane) nmr=giao
 ----------------------------------------------------------------------

 ---
 spe
 ---
 Structure from the checkpoint file:  "smiles_00026_conf_0.chk"
 Charge =  0 Multiplicity = 1

                         Standard orientation:
 ---------------------------------------------------------------------
 Center     Atomic      Atomic             Coordinates (Angstroms)
 Number     Number       Type             X           Y           Z
 ---------------------------------------------------------------------
      1          9           0       -0.551143   -1.990123   -1.087864
      2          6           0       -1.196139   -1.522601   -0.000113
      3          9           0       -0.551341   -1.990140    1.087734
      4          9           0       -2.424855   -2.086496   -0.000232
      5          6           0       -1.283128   -0.012714   -0.000113
      6          6           0       -2.553085    0.575963   -0.000237
      7          6           0       -2.705378    1.959487   -0.000238
      8          6           0       -1.577308    2.775853   -0.000113
      9          6           0       -0.303744    2.207701    0.000007
     10          6           0       -0.155057    0.820580    0.000006
     11         53           0        1.860692    0.089650    0.000165
     12          1           0       -3.422918   -0.068718   -0.000330
     13          1           0       -3.699853    2.392992   -0.000335
     14          1           0       -1.678781    3.856627   -0.000108
     15          1           0        0.573963    2.842880    0.000098
 ---------------------------------------------------------------------

 SCF Done:  E(RM062X) =  -866.344581413     A.U. after    1 cycles

      1  F    Isotropic =   238.5377   Anisotropy =   137.7867

      2  C    Isotropic =    51.1628   Anisotropy =    17.4572

      3  F    Isotropic =   238.5416   Anisotropy =   137.7752

      4  F    Isotropic =   251.9604   Anisotropy =   130.5598

      5  C    Isotropic =    27.4510   Anisotropy =   178.1359

      6  C    Isotropic =    33.8856   Anisotropy =   216.4710

      7  C    Isotropic =    34.5094   Anisotropy =   219.4595

      8  C    Isotropic =    29.5257   Anisotropy =   218.4312

      9  C    Isotropic =    22.2638   Anisotropy =   184.1559

     10  C    Isotropic =    27.5780   Anisotropy =   160.5202

     11  I    Isotropic =   432.1286   Anisotropy =    72.5530

     12  H    Isotropic =    23.1481   Anisotropy =    10.4658

     13  H    Isotropic =    23.5087   Anisotropy =     5.7168

     14  H    Isotropic =    23.5722   Anisotropy =     6.0654

     15  H    Isotropic =    23.2524   Anisotropy =    13.4614

 The electronic state is 1-A.
 Alpha  occ. eigenvalues --  -25.28502 -25.28252 -25.28251 -10.80715 -10.61759
 Alpha  occ. eigenvalues --  -10.59060 -10.57106 -10.56936 -10.56717 -10.56340
 Alpha  occ. eigenvalues --   -7.11155  -5.10547  -5.09440  -5.09417  -2.07366
 Alpha  occ. eigenvalues --   -2.06922  -2.06911  -2.05984  -2.05981  -1.46616
 Alpha  occ. eigenvalues --   -1.37640  -1.37535  -0.99505  -0.90048  -0.87758
 Alpha  occ. eigenvalues --   -0.81745  -0.78344  -0.72999  -0.71367  -0.69426
 Alpha  occ. eigenvalues --   -0.68511  -0.65502  -0.58419  -0.57919  -0.57865
 Alpha  occ. eigenvalues --   -0.55217  -0.53898  -0.53821  -0.52432  -0.51896
 Alpha  occ. eigenvalues --   -0.49266  -0.47718  -0.47042  -0.43393  -0.40162
 Alpha  occ. eigenvalues --   -0.36450  -0.33757  -0.32657  -0.30319
 Alpha virt. eigenvalues --   -0.01544  -0.01301  -0.00381   0.08742   0.10496
 Alpha virt. eigenvalues --    0.11924   0.13079   0.14095   0.14576   0.15686
 Alpha virt. eigenvalues --    0.17329   0.17886   0.18850   0.18920   0.20290

 Mulliken charges:
               1
     1  F   -0.176579
     2  C    0.530879
     3  F   -0.176573
     4  F   -0.185894
     5  C   -0.063248
     6  C   -0.141575
     7  C   -0.153774
     8  C   -0.139000
     9  C   -0.172956
    10  C    0.021066
    11  I   -0.060455
    12  H    0.185858
    13  H    0.172689
    14  H    0.173711
    15  H    0.185850
 Sum of Mulliken charges =  -0.00000

 Dipole moment (field-independent basis, Debye):
    X=             -1.6690    Y=              3.6577    Z=             -0.0001  Tot=              4.0205
 Quadrupole moment (field-independent basis, Debye-Ang):
   XX=            -73.1175   YY=            -77.0598   ZZ=            -86.3225
   XY=             -5.7884   XZ=              0.0012   YZ=             -0.0005

 1\1\GINC-HPC-34-31\SP\RM062X\def2TZVP\C7H4F3I1\MANTIND\17-Sep-2024\0\\
 #p M062X/def2tzvp geom=check guess=read scf(xqc,tight) integral(grid=u
 ltrafine) scrf(SMD, solvent=1,4-Dioxane) nmr=giao\\spe\\0,1\F,0,0.7393
 855057,-1.8991505907,1.0877701211\C,0,1.3703054437,-1.4128001695,0.000
 0194916\F,0,0.7395839989,-1.8991617195,-1.0878277978\F,0,2.6151257075,
 -1.9401939017,0.0001382996\C,0,1.4127036206,0.0989960439,0.0000197566\
 C,0,2.6647378288,0.724890105,0.0001432203\C,0,2.7761401278,2.112305320
 2,0.0001442057\C,0,1.6244722921,2.8950291184,0.0000194586\C,0,0.368227

 Normal termination of Gaussian 16 at Tue Sep 17 10:29:40 2024.
