 Gaussian 16, Revision C.02,

 ----------------------------------------------------------------------
 #p B3LYP/6-31G(d,p) EmpiricalDispersion=GD3BJ opt freq scf(xqc,tight)
 integral(grid=ultrafine)
 ----------------------------------------------------------------------

 ----------------------------------
 opt-freq conformers_unique/conf_aa
 ----------------------------------
 Symbolic Z-matrix:
 Charge =  0 Multiplicity = 1

 SCF Done:  E(RB3LYP) =  -3070.59407676     A.U. after   14 cycles
 SCF Done:  E(RB3LYP) =  -3070.59542946     A.U. after   12 cycles
 SCF Done:  E(RB3LYP) =  -3070.59470760     A.U. after   13 cycles
 SCF Done:  E(RB3LYP) =  -3070.59570259     A.U. after   11 cycles
 SCF Done:  E(RB3LYP) =  -3070.59572462     A.U. after   10 cycles
 SCF Done:  E(RB3LYP) =  -3070.59576328     A.U. after   12 cycles
 SCF Done:  E(RB3LYP) =  -3070.59577579     A.U. after   11 cycles
 SCF Done:  E(RB3LYP) =  -3070.59578538     A.U. after   10 cycles
 SCF Done:  E(RB3LYP) =  -3070.59580533     A.U. after   12 cycles
 SCF Done:  E(RB3LYP) =  -3070.59583476     A.U. after   12 cycles
 SCF Done:  E(RB3LYP) =  -3070.59594153     A.U. after   12 cycles
 SCF Done:  E(RB3LYP) =  -3070.59593199     A.U. after   12 cycles
 SCF Done:  E(RB3LYP) =  -3070.59594390     A.U. after   12 cycles
 SCF Done:  E(RB3LYP) =  -3070.59594395     A.U. after    9 cycles
 SCF Done:  E(RB3LYP) =  -3070.59594403     A.U. after    7 cycles
 SCF Done:  E(RB3LYP) =  -3070.59594402     A.U. after    7 cycles
 SCF Done:  E(RB3LYP) =  -3070.59594404     A.U. after    7 cycles
 Optimization completed.
    -- Stationary point found.
 Normal termination of Gaussian 16 at Tue Sep 17 09:47:27 2024.

 ----------------------------------------------------------------------
 #P Geom=AllCheck Guess=TCheck SCRF=Check GenChk RB3LYP/6-31G(d,p) Freq
 ----------------------------------------------------------------------

 Structure from the checkpoint file:  "smiles_00047_conf_0.chk"
 ----------------------------------
 opt-freq conformers_unique/conf_aa
 ----------------------------------
 Charge =  0 Multiplicity = 1

 SCF Done:  E(RB3LYP) =  -3070.59594404     A.U. after    1 cycles

                      1                      2                      3
                      A                      A                      A
 Frequencies --     17.6115                31.9299                62.9473
 Red. masses --      5.1494                 4.2164                 6.6734
 Frc consts  --      0.0009                 0.0025                 0.0156
 IR Inten    --      1.8423                 0.4238                 1.0963

                      4                      5                      6
                      A                      A                      A
 Frequencies --    112.6164               128.6683               183.2335
 Red. masses --      2.2396                 1.5475                 4.7238
 Frc consts  --      0.0167                 0.0151                 0.0934
 IR Inten    --      0.2011                 0.1729                 3.0232

                      7                      8                      9
                      A                      A                      A
 Frequencies --    203.2981               270.7659               291.6139
 Red. masses --      6.5193                 5.0663                 4.4732
 Frc consts  --      0.1588                 0.2188                 0.2241
 IR Inten    --      1.1839                 3.5535                11.2396

                     10                     11                     12
                      A                      A                      A
 Frequencies --    329.1585               351.4723               421.4678
 Red. masses --      5.0771                 4.8372                 2.6461
 Frc consts  --      0.3241                 0.3521                 0.2769
 IR Inten    --      4.7295                 6.3062                 4.1355

                     13                     14                     15
                      A                      A                      A
 Frequencies --    423.2284               505.0601               580.2954
 Red. masses --      2.7594                 3.0832                 5.8533
 Frc consts  --      0.2912                 0.4634                 1.1613
 IR Inten    --      1.8228                 9.2403                 7.8736

                     16                     17                     18
                      A                      A                      A
 Frequencies --    645.0341               665.2268               719.7225
 Red. masses --      6.4143                 4.5957                 4.1241
 Frc consts  --      1.5724                 1.1982                 1.2587
 IR Inten    --      1.7571                 8.0805                 2.6215

                     19                     20                     21
                      A                      A                      A
 Frequencies --    775.2775               825.3381               851.3378
 Red. masses --      4.8476                 1.8097                 1.3289
 Frc consts  --      1.7167                 0.7263                 0.5675
 IR Inten    --     24.6487                22.2884                 0.6138

                     22                     23                     24
                      A                      A                      A
 Frequencies --    856.1271               895.3805               961.2032
 Red. masses --      2.9484                 3.2596                 2.1248
 Frc consts  --      1.2732                 1.5397                 1.1566
 IR Inten    --     13.0580                 8.3886                 1.3774

                     25                     26                     27
                      A                      A                      A
 Frequencies --    972.7955               987.7084              1030.9130
 Red. masses --      1.4089                 1.3531                 4.8792
 Frc consts  --      0.7856                 0.7777                 3.0552
 IR Inten    --      0.3200                 0.2371                41.8053

                     28                     29                     30
                      A                      A                      A
 Frequencies --   1048.2494              1096.3636              1134.8476
 Red. masses --      4.8989                 2.5987                 1.4045
 Frc consts  --      3.1716                 1.8404                 1.0658
 IR Inten    --     34.1413                27.5259                12.6804

                     31                     32                     33
                      A                      A                      A
 Frequencies --   1166.7971              1179.6123              1211.5955
 Red. masses --      1.3909                 1.2818                 1.1523
 Frc consts  --      1.1157                 1.0508                 0.9966
 IR Inten    --    109.8250                 1.4320                 2.3795

                     34                     35                     36
                      A                      A                      A
 Frequencies --   1212.2099              1221.2335              1292.8559
 Red. masses --      1.4365                 2.7152                 2.0195
 Frc consts  --      1.2437                 2.3859                 1.9888
 IR Inten    --      2.8772                 6.0254               170.0147

                     37                     38                     39
                      A                      A                      A
 Frequencies --   1325.7688              1334.8764              1367.4473
 Red. masses --      2.4212                 1.8287                 2.4076
 Frc consts  --      2.5073                 1.9198                 2.6525
 IR Inten    --    119.9376                 2.5191                71.9778

                     40                     41                     42
                      A                      A                      A
 Frequencies --   1449.4673              1480.5231              1488.8915
 Red. masses --      2.5767                 1.2001                 1.1311
 Frc consts  --      3.1896                 1.5499                 1.4773
 IR Inten    --     13.8892                10.4560                15.6170

                     43                     44                     45
                      A                      A                      A
 Frequencies --   1496.0401              1509.2602              1533.0227
 Red. masses --      1.0465                 1.0505                 2.3189
 Frc consts  --      1.3800                 1.4099                 3.2109
 IR Inten    --      6.5945                 8.0548                60.1415

                     46                     47                     48
                      A                      A                      A
 Frequencies --   1629.9538              1651.2644              1821.4815
 Red. masses --      6.8885                 5.7099                10.9227
 Frc consts  --     10.7826                 9.1729                21.3515
 IR Inten    --      0.5460                 5.3147               186.9296

                     49                     50                     51
                      A                      A                      A
 Frequencies --   3067.5074              3075.8783              3139.8394
 Red. masses --      1.0297                 1.0611                 1.1040
 Frc consts  --      5.7088                 5.9150                 6.4123
 IR Inten    --     30.0523                10.6294                 5.7671

                     52                     53                     54
                      A                      A                      A
 Frequencies --   3145.9825              3179.1715              3188.6392
 Red. masses --      1.1071                 1.1072                 1.0895
 Frc consts  --      6.4555                 6.5936                 6.5269
 IR Inten    --     19.8773                14.8896                 9.8918

                     55                     56                     57
                      A                      A                      A
 Frequencies --   3203.6847              3221.8348              3223.4630
 Red. masses --      1.0891                 1.0937                 1.0949
 Frc consts  --      6.5860                 6.6887                 6.7027
 IR Inten    --      0.7891                 4.1134                 0.3753

 - Thermochemistry -
 -------------------
 Temperature   298.150 Kelvin.  Pressure   1.00000 Atm.
 Atom     1 has atomic number  6 and mass  12.00000

 Molecular mass:   227.97859 amu.
 Principal axes and moments of inertia in atomic units:
                           1         2         3
     Eigenvalues --   905.533827693.469827779.81761
           X            0.99989  -0.00252   0.01452
           Y            0.00285   0.99974  -0.02280
           Z           -0.01446   0.02283   0.99963
 This molecule is an asymmetric top.
 Rotational symmetry number  1.
 Warning -- assumption of classical behavior for rotation
           may cause significant error
 Rotational temperatures (Kelvin)      0.09565     0.01126     0.01113
 Rotational constants (GHZ):           1.99301     0.23458     0.23198
 Zero-point vibrational energy     425853.8 (Joules/Mol)
                                  101.78150 (Kcal/Mol)
 Warning -- explicit consideration of  15 degrees of freedom as
           vibrations may cause significant error
 Vibrational temperatures:     25.34    45.94    90.57   162.03   185.13
          (Kelvin)            263.63   292.50   389.57   419.57   473.59
                              505.69   606.40   608.93   726.67   834.92
                              928.06   957.11  1035.52  1115.45  1187.48
                             1224.89  1231.78  1288.25  1382.96  1399.64
                             1421.09  1483.25  1508.20  1577.42  1632.79
                             1678.76  1697.20  1743.22  1744.10  1757.08
                             1860.13  1907.49  1920.59  1967.45  2085.46
                             2130.14  2142.18  2152.47  2171.49  2205.68
                             2345.14  2375.80  2620.71  4413.46  4425.50
                             4517.53  4526.37  4574.12  4587.74  4609.39
                             4635.50  4637.84

 Zero-point correction=                           0.162199 (Hartree/Particle)
 Thermal correction to Energy=                    0.173858
 Thermal correction to Enthalpy=                  0.174802
 Thermal correction to Gibbs Free Energy=         0.120948
 Sum of electronic and zero-point Energies=          -3070.433745
 Sum of electronic and thermal Energies=             -3070.422086
 Sum of electronic and thermal Enthalpies=           -3070.421142
 Sum of electronic and thermal Free Energies=        -3070.474996

                     E (Thermal)             CV                S
                      KCal/Mol        Cal/Mol-Kelvin    Cal/Mol-Kelvin
 Total                  109.098             41.369            113.345
 Electronic               0.000              0.000              0.000
 Translational            0.889              2.981             42.174
 Rotational               0.889              2.981             32.361
 Vibrational            107.320             35.407             38.810
 Vibration     1          0.593              1.986              6.887
 Vibration     2          0.594              1.983              5.706
 Vibration     3          0.597              1.972              4.363
 Vibration     4          0.607              1.939              3.223
 Vibration     5          0.611              1.925              2.966
 Vibration     6          0.631              1.863              2.295
 Vibration     7          0.639              1.835              2.103
 Vibration     8          0.674              1.727              1.591
 Vibration     9          0.687              1.689              1.465
 Vibration    10          0.712              1.617              1.264
 Vibration    11          0.728              1.572              1.160
 Vibration    12          0.784              1.424              0.887
 Vibration    13          0.785              1.420              0.881
 Vibration    14          0.860              1.239              0.646
 Vibration    15          0.937              1.074              0.485

                           ! Non-Optimized Parameters !
 Normal termination of Gaussian 16 at Tue Sep 17 09:49:09 2024.

 ----------------------------------------------------------------------
 #p M062X/def2tzvp geom=check guess=read scf(xqc,tight) integral(grid=u
 ltrafine) scrf(SMD, solvent=1,4-Dioxane) polar prop=efg volume
 ----------------------------------------------------------------------

 ---
 spe
 ---
 Structure from the checkpoint file:  "smiles_00047_conf_0.chk"
 Charge =  0 Multiplicity = 1

 SCF Done:  E(RM062X) =  -3073.02463912     A.U. after   11 cycles

  Exact polarizability:     197.114       4.363     139.084     -12.306       6.682     105.736
 Approx polarizability:     189.409       4.098     170.864     -16.437      10.514     122.133

 Normal termination of Gaussian 16 at Tue Sep 17 10:28:13 2024.
 Gaussian 16:  ES64L-G16RevC.02  7-Dec-2021

 ----------------------------------------------------------------------
 #p M062X/def2tzvp geom=check guess=read scf(xqc,tight) integral(grid=u
 ltrafine) scrf(SMD, solvent=1,4-Dioxane) nmr=giao
 ----------------------------------------------------------------------

 ---
 spe
 ---
 Structure from the checkpoint file:  "smiles_00047_conf_0.chk"
 Charge =  0 Multiplicity = 1

                         Standard orientation:
 ---------------------------------------------------------------------
 Center     Atomic      Atomic             Coordinates (Angstroms)
 Number     Number       Type             X           Y           Z
 ---------------------------------------------------------------------
      1          6           0       -4.616322    0.172978   -1.649906
      2          8           0       -3.810305   -0.554906   -0.706707
      3          6           0       -3.303687    0.183901    0.300322
      4          8           0       -3.512258    1.370197    0.439033
      5          6           0       -2.404031   -0.645510    1.197761
      6          6           0       -0.948575   -0.447873    0.815418
      7          6           0       -0.168766   -1.524597    0.386591
      8          6           0        1.169207   -1.346756    0.034200
      9          6           0        1.722287   -0.072407    0.109626
     10         35           0        3.554346    0.185430   -0.369508
     11          6           0        0.964397    1.020098    0.527107
     12          6           0       -0.369016    0.825604    0.877419
     13          1           0       -5.476184    0.624855   -1.150292
     14          1           0       -4.940719   -0.560574   -2.386846
     15          1           0       -4.028389    0.962429   -2.123600
     16          1           0       -2.574888   -0.307342    2.224141
     17          1           0       -2.676632   -1.699606    1.123849
     18          1           0       -0.606835   -2.516550    0.326438
     19          1           0        1.771881   -2.184700   -0.295547
     20          1           0        1.411711    2.005852    0.575988
     21          1           0       -0.974525    1.670634    1.188811
 ---------------------------------------------------------------------

 SCF Done:  E(RM062X) =  -3073.02463912     A.U. after    1 cycles

      1  C    Isotropic =   130.4493   Anisotropy =    74.3432

      2  O    Isotropic =   120.3808   Anisotropy =   180.3585

      3  C    Isotropic =    -9.9016   Anisotropy =   121.9970

      4  O    Isotropic =  -151.4050   Anisotropy =   676.8523

      5  C    Isotropic =   139.9368   Anisotropy =    21.8551

      6  C    Isotropic =    26.8425   Anisotropy =   220.5331

      7  C    Isotropic =    32.3543   Anisotropy =   187.7126

      8  C    Isotropic =    31.4685   Anisotropy =   184.2282

      9  C    Isotropic =    25.7243   Anisotropy =   141.3916

     10  Br   Isotropic =  2088.4027   Anisotropy =  1285.4895

     11  C    Isotropic =    30.8233   Anisotropy =   185.3376

     12  C    Isotropic =    32.4996   Anisotropy =   210.3689

     13  H    Isotropic =    28.1288   Anisotropy =     8.5656

     14  H    Isotropic =    28.3482   Anisotropy =     7.8546

     15  H    Isotropic =    28.4088   Anisotropy =     7.6715

     16  H    Isotropic =    28.1637   Anisotropy =     5.5047

     17  H    Isotropic =    28.3346   Anisotropy =     4.0656

     18  H    Isotropic =    23.8378   Anisotropy =     7.8335

     19  H    Isotropic =    23.7228   Anisotropy =    10.2470

     20  H    Isotropic =    23.6364   Anisotropy =    10.5731

     21  H    Isotropic =    23.2534   Anisotropy =     9.3587

 The electronic state is 1-A.
 Alpha  occ. eigenvalues -- -485.37515 -63.35996 -57.17939 -57.17705 -57.17699
 Alpha  occ. eigenvalues --  -19.67754 -19.62171 -10.67879 -10.60403 -10.58871
 Alpha  occ. eigenvalues --  -10.56742 -10.55947 -10.55798 -10.55745 -10.55544
 Alpha  occ. eigenvalues --  -10.55272  -9.02641  -6.85044  -6.84175  -6.84156
 Alpha  occ. eigenvalues --   -2.88421  -2.88106  -2.88082  -2.87272  -2.87272
 Alpha  occ. eigenvalues --   -1.23635  -1.14384  -0.98518  -0.91844  -0.87002
 Alpha  occ. eigenvalues --   -0.85707  -0.82224  -0.77615  -0.70805  -0.67579
 Alpha  occ. eigenvalues --   -0.65271  -0.59609  -0.58490  -0.57204  -0.55701
 Alpha  occ. eigenvalues --   -0.54397  -0.53249  -0.50182  -0.49533  -0.48448
 Alpha  occ. eigenvalues --   -0.47260  -0.45535  -0.44843  -0.43575  -0.41802
 Alpha  occ. eigenvalues --   -0.40885  -0.38186  -0.37839  -0.35891  -0.35163
 Alpha  occ. eigenvalues --   -0.32180  -0.29512
 Alpha virt. eigenvalues --    0.00275   0.00692   0.03584   0.04904   0.07720
 Alpha virt. eigenvalues --    0.09766   0.10464   0.10877   0.12311   0.13347
 Alpha virt. eigenvalues --    0.14137   0.14469   0.15516   0.16185   0.16541

 Mulliken charges:
               1
     1  C   -0.267504
     2  O   -0.271502
     3  C    0.397322
     4  O   -0.366656
     5  C   -0.364428
     6  C    0.080776
     7  C   -0.188224
     8  C   -0.155588
     9  C    0.031739
    10  Br  -0.116882
    11  C   -0.155253
    12  C   -0.187436
    13  H    0.160105
    14  H    0.156598
    15  H    0.161297
    16  H    0.192953
    17  H    0.171900
    18  H    0.168815
    19  H    0.180125
    20  H    0.182002
    21  H    0.189840
 Sum of Mulliken charges =  -0.00000

 Dipole moment (field-independent basis, Debye):
    X=             -2.2328    Y=             -2.0013    Z=             -0.3548  Tot=              3.0194
 Quadrupole moment (field-independent basis, Debye-Ang):
   XX=            -81.6176   YY=            -80.6670   ZZ=            -80.5211
   XY=              5.6696   XZ=              4.4790   YZ=             -1.1939

 Normal termination of Gaussian 16 at Tue Sep 17 10:43:28 2024.
