 Gaussian 16, Revision C.02,

 ----------------------------------------------------------------------
 #p B3LYP/6-31G(d,p) EmpiricalDispersion=GD3BJ opt freq scf(xqc,tight)
 integral(grid=ultrafine)
 ----------------------------------------------------------------------

 ----------------------------------
 opt-freq conformers_unique/conf_ac
 ----------------------------------
 Symbolic Z-matrix:
 Charge =  0 Multiplicity = 1

 SCF Done:  E(RB3LYP) =  -2996.56757885     A.U. after   15 cycles
 SCF Done:  E(RB3LYP) =  -2996.56875353     A.U. after   12 cycles
 SCF Done:  E(RB3LYP) =  -2996.56880866     A.U. after   12 cycles
 SCF Done:  E(RB3LYP) =  -2996.56893539     A.U. after   11 cycles
 SCF Done:  E(RB3LYP) =  -2996.56895076     A.U. after    9 cycles
 SCF Done:  E(RB3LYP) =  -2996.56895308     A.U. after    8 cycles
 SCF Done:  E(RB3LYP) =  -2996.56895351     A.U. after    8 cycles
 SCF Done:  E(RB3LYP) =  -2996.56895362     A.U. after    7 cycles
 Optimization completed.
    -- Stationary point found.
 Normal termination of Gaussian 16 at Tue Sep 17 09:55:07 2024.

 ----------------------------------------------------------------------
 #P Geom=AllCheck Guess=TCheck SCRF=Check GenChk RB3LYP/6-31G(d,p) Freq
 ----------------------------------------------------------------------

 Structure from the checkpoint file:  "smiles_00017_conf_2.chk"
 ----------------------------------
 opt-freq conformers_unique/conf_ac
 ----------------------------------
 Charge =  0 Multiplicity = 1

 SCF Done:  E(RB3LYP) =  -2996.56895362     A.U. after    1 cycles

                      1                      2                      3
                      A                      A                      A
 Frequencies --     56.0401                68.2074               103.3971
 Red. masses --      2.8978                 3.8259                 3.8462
 Frc consts  --      0.0054                 0.0105                 0.0242
 IR Inten    --      0.0952                 1.1158                 0.4258

                      4                      5                      6
                      A                      A                      A
 Frequencies --    155.4609               191.2922               234.5504
 Red. masses --      5.1038                 5.2931                 1.0294
 Frc consts  --      0.0727                 0.1141                 0.0334
 IR Inten    --      0.4465                 1.0448                 0.1251

                      7                      8                      9
                      A                      A                      A
 Frequencies --    262.3415               275.0717               298.7519
 Red. masses --      1.5726                 2.4774                 3.4886
 Frc consts  --      0.0638                 0.1104                 0.1835
 IR Inten    --      0.2430                 1.0037                 1.4361

                     10                     11                     12
                      A                      A                      A
 Frequencies --    345.0722               400.4011               439.4472
 Red. masses --      3.0362                 3.2264                 2.6357
 Frc consts  --      0.2130                 0.3048                 0.2999
 IR Inten    --      0.1511                 0.7522                 0.2931

                     13                     14                     15
                      A                      A                      A
 Frequencies --    468.3066               496.3943               553.5780
 Red. masses --      3.4405                 5.4252                 3.8425
 Frc consts  --      0.4446                 0.7876                 0.6938
 IR Inten    --      3.4813                11.0934                 1.1416

                     16                     17                     18
                      A                      A                      A
 Frequencies --    615.9292               668.9771               746.2958
 Red. masses --      4.5694                 6.5059                 3.6449
 Frc consts  --      1.0214                 1.7155                 1.1961
 IR Inten    --      2.5157                13.5128                 5.7763

                     19                     20                     21
                      A                      A                      A
 Frequencies --    767.7895               812.7215               874.3570
 Red. masses --      1.3854                 2.4680                 3.1945
 Frc consts  --      0.4812                 0.9605                 1.4389
 IR Inten    --     26.9824                17.0596                 8.2639

                     22                     23                     24
                      A                      A                      A
 Frequencies --    889.8517               939.7796               954.5701
 Red. masses --      1.5678                 1.2444                 1.4686
 Frc consts  --      0.7314                 0.6475                 0.7885
 IR Inten    --      0.8902                 1.1189                 9.2283

                     25                     26                     27
                      A                      A                      A
 Frequencies --    956.6058               964.4135               992.9566
 Red. masses --      1.8500                 1.8973                 1.2943
 Frc consts  --      0.9974                 1.0397                 0.7519
 IR Inten    --     23.2701                38.4324                 0.2349

                     28                     29                     30
                      A                      A                      A
 Frequencies --   1047.6111              1067.8209              1142.0953
 Red. masses --      7.2443                 1.9098                 1.8966
 Frc consts  --      4.6844                 1.2831                 1.4576
 IR Inten    --     32.6049                 7.8778                93.1859

                     31                     32                     33
                      A                      A                      A
 Frequencies --   1143.7686              1170.0276              1185.0069
 Red. masses --      1.5199                 2.0089                 1.0968
 Frc consts  --      1.1715                 1.6203                 0.9075
 IR Inten    --      3.2342                18.9097                 0.8069

                     34                     35                     36
                      A                      A                      A
 Frequencies --   1210.8685              1275.2398              1296.7280
 Red. masses --      1.9398                 1.7815                 2.5479
 Frc consts  --      1.6757                 1.7069                 2.5242
 IR Inten    --     13.6391                31.1844               117.1747

                     37                     38                     39
                      A                      A                      A
 Frequencies --   1335.1309              1376.8183              1394.8261
 Red. masses --      8.4499                 1.3214                 1.1922
 Frc consts  --      8.8746                 1.4758                 1.3666
 IR Inten    --      4.1165                 3.8000                15.7211

                     40                     41                     42
                      A                      A                      A
 Frequencies --   1417.2745              1429.7500              1481.2942
 Red. masses --      1.4003                 1.2702                 2.2222
 Frc consts  --      1.6573                 1.5298                 2.8729
 IR Inten    --     20.9412                23.4657                 9.7522

                     43                     44                     45
                      A                      A                      A
 Frequencies --   1495.2902              1502.8195              1507.7216
 Red. masses --      1.0551                 1.0469                 1.0674
 Frc consts  --      1.3900                 1.3931                 1.4297
 IR Inten    --      1.0899                 0.5421                 7.5262

                     46                     47                     48
                      A                      A                      A
 Frequencies --   1515.4365              1525.6864              1624.4440
 Red. masses --      2.4711                 1.0895                 6.0743
 Frc consts  --      3.3436                 1.4942                 9.4439
 IR Inten    --     99.7745                 8.1935                 1.2328

                     49                     50                     51
                      A                      A                      A
 Frequencies --   1643.0155              3046.9201              3053.8779
 Red. masses --      6.2149                 1.0348                 1.0607
 Frc consts  --      9.8849                 5.6604                 5.8286
 IR Inten    --     17.8529                14.3628                 8.8210

                     52                     53                     54
                      A                      A                      A
 Frequencies --   3056.3666              3121.2727              3127.0938
 Red. masses --      1.0588                 1.1025                 1.1031
 Frc consts  --      5.8274                 6.3285                 6.3552
 IR Inten    --     19.8688                 7.4773                21.3964

                     55                     56                     57
                      A                      A                      A
 Frequencies --   3131.3770              3144.6563              3191.4328
 Red. masses --      1.1024                 1.1029                 1.0859
 Frc consts  --      6.3690                 6.4260                 6.5167
 IR Inten    --     43.2265                17.8243                 1.7751

                     58                     59                     60
                      A                      A                      A
 Frequencies --   3204.8549              3215.6145              3221.5678
 Red. masses --      1.0906                 1.0939                 1.0967
 Frc consts  --      6.6000                 6.6646                 6.7059
 IR Inten    --     12.8636                 8.9323                 6.7738

 - Thermochemistry -
 -------------------
 Temperature   298.150 Kelvin.  Pressure   1.00000 Atm.
 Atom     1 has atomic number  6 and mass  12.00000

 Molecular mass:   213.99933 amu.
 Principal axes and moments of inertia in atomic units:
                           1         2         3
     Eigenvalues --  2055.384562302.789314097.77071
           X            0.99501   0.09976   0.00231
           Y           -0.09978   0.99497   0.00902
           Z           -0.00140  -0.00921   0.99996
 This molecule is an asymmetric top.
 Rotational symmetry number  1.
 Warning -- assumption of classical behavior for rotation
           may cause significant error
 Rotational temperatures (Kelvin)      0.04214     0.03761     0.02114
 Rotational constants (GHZ):           0.87806     0.78372     0.44042
 Zero-point vibrational energy     471545.6 (Joules/Mol)
                                  112.70210 (Kcal/Mol)
 Warning -- explicit consideration of  16 degrees of freedom as
           vibrations may cause significant error
 Vibrational temperatures:     80.63    98.14   148.77   223.67   275.23
          (Kelvin)            337.47   377.45   395.77   429.84   496.48
                              576.09   632.27   673.79   714.20   796.48
                              886.18   962.51  1073.75  1104.68  1169.32
                             1258.00  1280.30  1352.13  1373.41  1376.34
                             1387.58  1428.64  1507.28  1536.36  1643.22
                             1645.63  1683.41  1704.96  1742.17  1834.79
                             1865.70  1920.96  1980.93  2006.84  2039.14
                             2057.09  2131.25  2151.39  2162.22  2169.28
                             2180.38  2195.12  2337.21  2363.93  4383.84
                             4393.85  4397.43  4490.82  4499.19  4505.35
                             4524.46  4591.76  4611.07  4626.55  4635.12

 Zero-point correction=                           0.179602 (Hartree/Particle)
 Thermal correction to Energy=                    0.190570
 Thermal correction to Enthalpy=                  0.191515
 Thermal correction to Gibbs Free Energy=         0.141790
 Sum of electronic and zero-point Energies=          -2996.389351
 Sum of electronic and thermal Energies=             -2996.378383
 Sum of electronic and thermal Enthalpies=           -2996.377439
 Sum of electronic and thermal Free Energies=        -2996.427164

                     E (Thermal)             CV                S
                      KCal/Mol        Cal/Mol-Kelvin    Cal/Mol-Kelvin
 Total                  119.585             40.961            104.654
 Electronic               0.000              0.000              0.000
 Translational            0.889              2.981             41.986
 Rotational               0.889              2.981             31.340
 Vibrational            117.807             35.000             31.329
 Vibration     1          0.596              1.975              4.592
 Vibration     2          0.598              1.969              4.204
 Vibration     3          0.605              1.946              3.389
 Vibration     4          0.620              1.897              2.604
 Vibration     5          0.634              1.852              2.215
 Vibration     6          0.654              1.788              1.844
 Vibration     7          0.670              1.742              1.646
 Vibration     8          0.677              1.719              1.564
 Vibration     9          0.692              1.676              1.424
 Vibration    10          0.723              1.585              1.189
 Vibration    11          0.766              1.469              0.961
 Vibration    12          0.799              1.384              0.828
 Vibration    13          0.825              1.320              0.742
 Vibration    14          0.852              1.258              0.667
 Vibration    15          0.909              1.132              0.537
 Vibration    16          0.976              0.998              0.423

 Optimization completed.
    -- Stationary point found.
 Normal termination of Gaussian 16 at Tue Sep 17 09:57:19 2024.

 ----------------------------------------------------------------------
 #p M062X/def2tzvp geom=check guess=read scf(xqc,tight) integral(grid=u
 ltrafine) scrf(SMD, solvent=1,4-Dioxane) polar prop=efg volume
 ----------------------------------------------------------------------

 ---
 spe
 ---
 Structure from the checkpoint file:  "smiles_00017_conf_2.chk"
 Charge =  0 Multiplicity = 1

 SCF Done:  E(RM062X) =  -2998.97467476     A.U. after   11 cycles

  Exact polarizability:     176.373     -12.485     166.848      -7.050      -5.733      97.508
 Approx polarizability:     178.755     -11.791     182.289     -10.428      -9.370     120.088

 Normal termination of Gaussian 16 at Tue Sep 17 10:47:20 2024.
 Gaussian 16:  ES64L-G16RevC.02  7-Dec-2021

 ----------------------------------------------------------------------
 #p M062X/def2tzvp geom=check guess=read scf(xqc,tight) integral(grid=u
 ltrafine) scrf(SMD, solvent=1,4-Dioxane) nmr=giao
 ----------------------------------------------------------------------

 ---
 spe
 ---
 Structure from the checkpoint file:  "smiles_00017_conf_2.chk"
 Charge =  0 Multiplicity = 1

                         Standard orientation:
 ---------------------------------------------------------------------
 Center     Atomic      Atomic             Coordinates (Angstroms)
 Number     Number       Type             X           Y           Z
 ---------------------------------------------------------------------
      1          6           0        2.252699    2.138488    0.850867
      2          6           0        1.983466    0.747519    0.292119
      3          6           0        3.205699    0.080184   -0.312522
      4          8           0        1.006008    0.835531   -0.783403
      5          6           0       -0.305155    0.851102   -0.404866
      6          6           0       -1.028466    2.046152   -0.465295
      7          6           0       -2.382001    2.077971   -0.135352
      8          6           0       -3.030913    0.910458    0.266690
      9          6           0       -2.326998   -0.292181    0.326253
     10          6           0       -0.977124   -0.316474   -0.012813
     11         35           0       -0.032056   -1.975058    0.028542
     12          1           0        2.978351    2.087832    1.668934
     13          1           0        1.333680    2.586440    1.239707
     14          1           0        2.654108    2.791076    0.069380
     15          1           0        1.570093    0.104990    1.078234
     16          1           0        2.935949   -0.910260   -0.685889
     17          1           0        3.996413   -0.023533    0.436403
     18          1           0        3.590985    0.676028   -1.145636
     19          1           0       -0.502724    2.939145   -0.785330
     20          1           0       -2.927369    3.014677   -0.189761
     21          1           0       -4.084017    0.927901    0.527383
     22          1           0       -2.818799   -1.210834    0.624349
 ---------------------------------------------------------------------

 SCF Done:  E(RM062X) =  -2998.97467476     A.U. after    1 cycles

      1  C    Isotropic =   165.1017   Anisotropy =    32.8817

      2  C    Isotropic =   103.3822   Anisotropy =    80.7722

      3  C    Isotropic =   162.1390   Anisotropy =    36.7758

      4  O    Isotropic =   190.3145   Anisotropy =    78.6272

      5  C    Isotropic =     5.1919   Anisotropy =   162.4073

      6  C    Isotropic =    37.5864   Anisotropy =   183.3062

      7  C    Isotropic =    34.6105   Anisotropy =   212.7973

      8  C    Isotropic =    39.0415   Anisotropy =   204.9138

      9  C    Isotropic =    29.2716   Anisotropy =   183.6603

     10  C    Isotropic =    31.4413   Anisotropy =   121.6611

     11  Br   Isotropic =  2168.3996   Anisotropy =  1040.1604

     12  H    Isotropic =    30.9882   Anisotropy =    10.4749

     13  H    Isotropic =    30.3793   Anisotropy =     6.6236

     14  H    Isotropic =    30.7696   Anisotropy =     7.7455

     15  H    Isotropic =    27.6425   Anisotropy =     6.8390

     16  H    Isotropic =    29.7801   Anisotropy =     6.7123

     17  H    Isotropic =    30.7796   Anisotropy =     9.9842

     18  H    Isotropic =    30.5414   Anisotropy =     7.5489

     19  H    Isotropic =    23.9715   Anisotropy =     8.7040

     20  H    Isotropic =    23.7435   Anisotropy =     5.6460

     21  H    Isotropic =    23.9451   Anisotropy =     5.3569

     22  H    Isotropic =    23.5612   Anisotropy =    10.8751

 The electronic state is 1-A.
 Alpha  occ. eigenvalues -- -485.37585 -63.36052 -57.18000 -57.17764 -57.17754
 Alpha  occ. eigenvalues --  -19.64240 -10.61058 -10.60107 -10.59367 -10.55681
 Alpha  occ. eigenvalues --  -10.55120 -10.54943 -10.54902 -10.52356 -10.52092
 Alpha  occ. eigenvalues --   -9.02686  -6.85098  -6.84224  -6.84188  -2.88475
 Alpha  occ. eigenvalues --   -2.88163  -2.88124  -2.87309  -2.87308  -1.17857
 Alpha  occ. eigenvalues --   -0.97486  -0.89971  -0.88914  -0.83934  -0.81227
 Alpha  occ. eigenvalues --   -0.78094  -0.70374  -0.69707  -0.65833  -0.60793
 Alpha  occ. eigenvalues --   -0.56255  -0.55680  -0.52961  -0.51844  -0.50553
 Alpha  occ. eigenvalues --   -0.48395  -0.46737  -0.46109  -0.44978  -0.43667
 Alpha  occ. eigenvalues --   -0.43059  -0.42499  -0.40914  -0.39761  -0.37737
 Alpha  occ. eigenvalues --   -0.35059  -0.34877  -0.30906  -0.29312
 Alpha virt. eigenvalues --    0.00884   0.01692   0.03679   0.07577   0.09743
 Alpha virt. eigenvalues --    0.10337   0.11200   0.12709   0.12885   0.13991
 Alpha virt. eigenvalues --    0.14171   0.15062   0.15280   0.16665   0.17404

 Mulliken charges:
               1
     1  C   -0.448230
     2  C   -0.025416
     3  C   -0.398208
     4  O   -0.309090
     5  C    0.197610
     6  C   -0.178551
     7  C   -0.155629
     8  C   -0.161507
     9  C   -0.170334
    10  C   -0.009723
    11  Br  -0.102433
    12  H    0.155046
    13  H    0.158505
    14  H    0.153633
    15  H    0.153409
    16  H    0.150112
    17  H    0.146568
    18  H    0.152815
    19  H    0.181515
    20  H    0.165809
    21  H    0.165740
    22  H    0.178358
 Sum of Mulliken charges =   0.00000

 Dipole moment (field-independent basis, Debye):
    X=             -0.3893    Y=              1.6730    Z=              1.4158  Tot=              2.2260
 Quadrupole moment (field-independent basis, Debye-Ang):
   XX=            -68.5685   YY=            -75.0171   ZZ=            -82.5481
   XY=             -1.2153   XZ=              0.5922   YZ=             -0.3790

 Normal termination of Gaussian 16 at Tue Sep 17 11:06:12 2024.
