 Gaussian 16, Revision C.02,

 ----------------------------------------------------------------------
 #p B3LYP/6-31G(d,p) EmpiricalDispersion=GD3BJ opt freq scf(xqc,tight)
 integral(grid=ultrafine)
 ----------------------------------------------------------------------

 ----------------------------------
 opt-freq conformers_unique/conf_ac
 ----------------------------------
 Symbolic Z-matrix:
 Charge =  0 Multiplicity = 1

 SCF Done:  E(RB3LYP) =  -3031.26894200     A.U. after   15 cycles
 SCF Done:  E(RB3LYP) =  -3031.26956681     A.U. after   14 cycles
 SCF Done:  E(RB3LYP) =  -3031.26982906     A.U. after   13 cycles
 SCF Done:  E(RB3LYP) =  -3031.27072259     A.U. after   12 cycles
 SCF Done:  E(RB3LYP) =  -3031.27078298     A.U. after   11 cycles
 SCF Done:  E(RB3LYP) =  -3031.27078636     A.U. after    9 cycles
 SCF Done:  E(RB3LYP) =  -3031.27078781     A.U. after    8 cycles
 SCF Done:  E(RB3LYP) =  -3031.27078879     A.U. after    9 cycles
 SCF Done:  E(RB3LYP) =  -3031.27078913     A.U. after    8 cycles
 SCF Done:  E(RB3LYP) =  -3031.27078920     A.U. after    7 cycles
 Optimization completed.
    -- Stationary point found.
 Normal termination of Gaussian 16 at Tue Sep 17 09:45:48 2024.

 ----------------------------------------------------------------------
 #P Geom=AllCheck Guess=TCheck SCRF=Check GenChk RB3LYP/6-31G(d,p) Freq
 ----------------------------------------------------------------------

 Structure from the checkpoint file:  "smiles_00098_conf_2.chk"
 ----------------------------------
 opt-freq conformers_unique/conf_ac
 ----------------------------------
 Charge =  0 Multiplicity = 1

 SCF Done:  E(RB3LYP) =  -3031.27078920     A.U. after    1 cycles

                      1                      2                      3
                      A                      A                      A
 Frequencies --     27.3699                94.8821               126.9475
 Red. masses --      7.3555                 3.3981                 1.9804
 Frc consts  --      0.0032                 0.0180                 0.0188
 IR Inten    --      1.2542                 0.8786                 0.7226

                      4                      5                      6
                      A                      A                      A
 Frequencies --    141.9569               157.9148               211.5437
 Red. masses --      1.7619                 4.1204                 5.9562
 Frc consts  --      0.0209                 0.0605                 0.1570
 IR Inten    --      0.3580                 2.7063                 1.1799

                      7                      8                      9
                      A                      A                      A
 Frequencies --    251.1805               288.1654               351.0768
 Red. masses --      5.1746                 9.2385                 5.3378
 Frc consts  --      0.1924                 0.4520                 0.3876
 IR Inten    --      1.4721                 0.5059                18.4195

                     10                     11                     12
                      A                      A                      A
 Frequencies --    402.2126               439.9057               488.2435
 Red. masses --      6.6422                 3.8124                 4.5084
 Frc consts  --      0.6331                 0.4347                 0.6332
 IR Inten    --      1.9038                 2.0040                 5.2203

                     13                     14                     15
                      A                      A                      A
 Frequencies --    528.2680               660.4570               709.7240
 Red. masses --      5.1110                 6.5182                 4.7323
 Frc consts  --      0.8404                 1.6752                 1.4044
 IR Inten    --      3.9315                 8.1666                14.2505

                     16                     17                     18
                      A                      A                      A
 Frequencies --    713.3894               767.1483               807.2678
 Red. masses --      6.4329                 1.5522                 2.7615
 Frc consts  --      1.9289                 0.5382                 1.0603
 IR Inten    --     12.0961                42.7621                 2.3604

                     19                     20                     21
                      A                      A                      A
 Frequencies --    839.3706               902.3005               979.6660
 Red. masses --      5.2482                 1.4414                 1.3756
 Frc consts  --      2.1786                 0.6914                 0.7779
 IR Inten    --      7.8208                 0.3197                 1.5638

                     22                     23                     24
                      A                      A                      A
 Frequencies --   1003.2107              1010.2082              1050.7441
 Red. masses --      6.5822                 1.3402                 7.8693
 Frc consts  --      3.9030                 0.8058                 5.1189
 IR Inten    --     13.2636                 0.5620                57.6822

                     25                     26                     27
                      A                      A                      A
 Frequencies --   1078.1984              1138.8909              1168.2844
 Red. masses --      2.3483                 2.5885                 1.7936
 Frc consts  --      1.6084                 1.9782                 1.4424
 IR Inten    --     12.2477                69.1815                47.1495

                     28                     29                     30
                      A                      A                      A
 Frequencies --   1180.3977              1194.5651              1216.2297
 Red. masses --      1.2769                 1.0950                 1.6199
 Frc consts  --      1.0482                 0.9206                 1.4118
 IR Inten    --      1.0720                 5.3813                55.7011

                     31                     32                     33
                      A                      A                      A
 Frequencies --   1287.7126              1296.7745              1350.5839
 Red. masses --      4.4304                 1.5248                 8.6050
 Frc consts  --      4.3284                 1.5107                 9.2479
 IR Inten    --    388.6517                35.5276                41.2338

                     34                     35                     36
                      A                      A                      A
 Frequencies --   1472.6291              1480.2251              1494.7913
 Red. masses --      2.1115                 1.1990                 1.0465
 Frc consts  --      2.6979                 1.5478                 1.3777
 IR Inten    --     21.2091                13.2706                 6.1994

                     37                     38                     39
                      A                      A                      A
 Frequencies --   1509.8008              1512.5436              1620.7597
 Red. masses --      1.2725                 1.7588                 5.8145
 Frc consts  --      1.7090                 2.3707                 8.9991
 IR Inten    --     27.6604                 7.4004                12.2261

                     40                     41                     42
                      A                      A                      A
 Frequencies --   1647.4382              1815.2008              3065.6529
 Red. masses --      5.9345                11.9454                 1.0297
 Frc consts  --      9.4897                23.1899                 5.7018
 IR Inten    --     25.8312               191.4459                36.2975

                     43                     44                     45
                      A                      A                      A
 Frequencies --   3143.0828              3176.0464              3193.8211
 Red. masses --      1.1068                 1.1072                 1.0869
 Frc consts  --      6.4424                 6.5802                 6.5321
 IR Inten    --     19.1885                16.1845                 2.9663

                     46                     47                     48
                      A                      A                      A
 Frequencies --   3209.5757              3224.8358              3239.3950
 Red. masses --      1.0929                 1.0946                 1.0928
 Frc consts  --      6.6334                 6.7066                 6.7564
 IR Inten    --     13.3148                 4.2644                 2.5723

 - Thermochemistry -
 -------------------
 Temperature   298.150 Kelvin.  Pressure   1.00000 Atm.
 Atom     1 has atomic number  6 and mass  12.00000

 Molecular mass:   213.96294 amu.
 Principal axes and moments of inertia in atomic units:
                           1         2         3
     Eigenvalues --  1877.685042558.427514387.57371
           X            0.98343   0.18124   0.00312
           Y           -0.18125   0.98344   0.00001
           Z           -0.00306  -0.00057   1.00000
 This molecule is an asymmetric top.
 Rotational symmetry number  1.
 Warning -- assumption of classical behavior for rotation
           may cause significant error
 Rotational temperatures (Kelvin)      0.04613     0.03385     0.01974
 Rotational constants (GHZ):           0.96115     0.70541     0.41133
 Zero-point vibrational energy     350928.1 (Joules/Mol)
                                   83.87382 (Kcal/Mol)
 Warning -- explicit consideration of  13 degrees of freedom as
           vibrations may cause significant error
 Vibrational temperatures:     39.38   136.51   182.65   204.24   227.20
          (Kelvin)            304.36   361.39   414.61   505.12   578.69
                              632.93   702.47   760.06   950.25  1021.13
                             1026.41  1103.76  1161.48  1207.67  1298.21
                             1409.52  1443.40  1453.46  1511.79  1551.29
                             1638.61  1680.90  1698.33  1718.71  1749.88
                             1852.73  1865.77  1943.19  2118.78  2129.71
                             2150.67  2172.27  2176.21  2331.91  2370.30
                             2611.67  4410.79  4522.20  4569.62  4595.20
                             4617.86  4639.82  4660.77

 Zero-point correction=                           0.133661 (Hartree/Particle)
 Thermal correction to Energy=                    0.143889
 Thermal correction to Enthalpy=                  0.144834
 Thermal correction to Gibbs Free Energy=         0.095760
 Sum of electronic and zero-point Energies=          -3031.137128
 Sum of electronic and thermal Energies=             -3031.126900
 Sum of electronic and thermal Enthalpies=           -3031.125956
 Sum of electronic and thermal Free Energies=        -3031.175029

                     E (Thermal)             CV                S
                      KCal/Mol        Cal/Mol-Kelvin    Cal/Mol-Kelvin
 Total                   90.292             36.536            103.284
 Electronic               0.000              0.000              0.000
 Translational            0.889              2.981             41.985
 Rotational               0.889              2.981             31.422
 Vibrational             88.515             30.574             29.876
 Vibration     1          0.593              1.984              6.011
 Vibration     2          0.603              1.953              3.557
 Vibration     3          0.611              1.926              2.992
 Vibration     4          0.615              1.911              2.777
 Vibration     5          0.621              1.894              2.575
 Vibration     6          0.643              1.823              2.030
 Vibration     7          0.663              1.761              1.722
 Vibration     8          0.685              1.696              1.485
 Vibration     9          0.728              1.573              1.161
 Vibration    10          0.768              1.465              0.955
 Vibration    11          0.800              1.383              0.827
 Vibration    12          0.844              1.276              0.688
 Vibration    13          0.883              1.187              0.591

 Optimization completed.
    -- Stationary point found.
 Normal termination of Gaussian 16 at Tue Sep 17 09:47:11 2024.

 ----------------------------------------------------------------------
 #p M062X/def2tzvp geom=check guess=read scf(xqc,tight) integral(grid=u
 ltrafine) scrf(SMD, solvent=1,4-Dioxane) polar prop=efg volume
 ----------------------------------------------------------------------

 ---
 spe
 ---
 Structure from the checkpoint file:  "smiles_00098_conf_2.chk"
 Charge =  0 Multiplicity = 1

 SCF Done:  E(RM062X) =  -3033.70908362     A.U. after   13 cycles

  Exact polarizability:     158.743       2.223     169.671      -0.331      -0.863      77.431
 Approx polarizability:     164.251      -3.569     188.767      -0.414      -2.891      96.783

 Normal termination of Gaussian 16 at Tue Sep 17 10:30:35 2024.
 Gaussian 16:  ES64L-G16RevC.02  7-Dec-2021

 ----------------------------------------------------------------------
 #p M062X/def2tzvp geom=check guess=read scf(xqc,tight) integral(grid=u
 ltrafine) scrf(SMD, solvent=1,4-Dioxane) nmr=giao
 ----------------------------------------------------------------------

 ---
 spe
 ---
 Structure from the checkpoint file:  "smiles_00098_conf_2.chk"
 Charge =  0 Multiplicity = 1

                         Standard orientation:
 ---------------------------------------------------------------------
 Center     Atomic      Atomic             Coordinates (Angstroms)
 Number     Number       Type             X           Y           Z
 ---------------------------------------------------------------------
      1          6           0       -3.860692   -0.584443   -0.155461
      2          8           0       -2.717109    0.278987   -0.237890
      3          6           0       -1.543439   -0.298951    0.120096
      4          8           0       -1.463583   -1.459412    0.459153
      5          6           0       -0.417828    0.681347    0.052350
      6          6           0       -0.713147    2.055811    0.063651
      7          6           0        0.290832    3.015704    0.043827
      8          6           0        1.625884    2.614249    0.001393
      9          6           0        1.945175    1.259732   -0.021323
     10          6           0        0.934138    0.298295    0.008182
     11         35           0        1.504165   -1.518572   -0.060072
     12          1           0       -4.708753    0.022103   -0.471367
     13          1           0       -4.000720   -0.941350    0.867712
     14          1           0       -3.736694   -1.447296   -0.813759
     15          1           0       -1.753272    2.353867    0.093822
     16          1           0        0.033345    4.069415    0.060464
     17          1           0        2.422570    3.351269   -0.016662
     18          1           0        2.977765    0.934936   -0.064084
 ---------------------------------------------------------------------

 SCF Done:  E(RM062X) =  -3033.70908362     A.U. after    1 cycles

      1  C    Isotropic =   130.7306   Anisotropy =    71.5936

      2  O    Isotropic =   129.1068   Anisotropy =   171.0848

      3  C    Isotropic =     0.7257   Anisotropy =   103.3604

      4  O    Isotropic =  -160.3674   Anisotropy =   729.0931

      5  C    Isotropic =    33.2922   Anisotropy =   181.8671

      6  C    Isotropic =    28.9649   Anisotropy =   218.6060

      7  C    Isotropic =    36.9592   Anisotropy =   217.1945

      8  C    Isotropic =    28.4737   Anisotropy =   218.4452

      9  C    Isotropic =    26.9752   Anisotropy =   181.0592

     10  C    Isotropic =    20.6118   Anisotropy =   163.1154

     11  Br   Isotropic =  2036.0669   Anisotropy =  1175.4601

     12  H    Isotropic =    28.0454   Anisotropy =     7.8571

     13  H    Isotropic =    27.9859   Anisotropy =     8.2510

     14  H    Isotropic =    27.9146   Anisotropy =     8.0669

     15  H    Isotropic =    22.7315   Anisotropy =    10.0044

     16  H    Isotropic =    23.6715   Anisotropy =     5.9193

     17  H    Isotropic =    23.5066   Anisotropy =     6.2199

     18  H    Isotropic =    23.4028   Anisotropy =    11.4758

 The electronic state is 1-A.
 Alpha  occ. eigenvalues -- -485.37305 -63.35780 -57.17733 -57.17492 -57.17468
 Alpha  occ. eigenvalues --  -19.67508 -19.62173 -10.68280 -10.61651 -10.58826
 Alpha  occ. eigenvalues --  -10.57900 -10.56351 -10.56308 -10.56146 -10.55660
 Alpha  occ. eigenvalues --   -9.02426  -6.84863  -6.83971  -6.83889  -2.88241
 Alpha  occ. eigenvalues --   -2.87934  -2.87852  -2.87021  -2.87019  -1.23615
 Alpha  occ. eigenvalues --   -1.14354  -0.99006  -0.90357  -0.88470  -0.82790
 Alpha  occ. eigenvalues --   -0.81185  -0.72673  -0.69495  -0.65479  -0.62107
 Alpha  occ. eigenvalues --   -0.57197  -0.56913  -0.56421  -0.53490  -0.52738
 Alpha  occ. eigenvalues --   -0.49134  -0.48856  -0.48383  -0.45393  -0.43792
 Alpha  occ. eigenvalues --   -0.43720  -0.41382  -0.38525  -0.38204  -0.37315
 Alpha  occ. eigenvalues --   -0.33235  -0.32780  -0.30365
 Alpha virt. eigenvalues --   -0.02778   0.00334   0.03770   0.08033   0.08497
 Alpha virt. eigenvalues --    0.09532   0.11106   0.11784   0.13244   0.13652
 Alpha virt. eigenvalues --    0.15250   0.15968   0.16179   0.18215   0.18774

 Mulliken charges:
               1
     1  C   -0.263536
     2  O   -0.283910
     3  C    0.364664
     4  O   -0.341375
     5  C    0.096399
     6  C   -0.170179
     7  C   -0.160209
     8  C   -0.143079
     9  C   -0.151112
    10  C   -0.049723
    11  Br  -0.071500
    12  H    0.154786
    13  H    0.160411
    14  H    0.160606
    15  H    0.180706
    16  H    0.169027
    17  H    0.171582
    18  H    0.176443
 Sum of Mulliken charges =  -0.00000

 Dipole moment (field-independent basis, Debye):
    X=             -1.0802    Y=              3.6931    Z=             -0.4469  Tot=              3.8737
 Quadrupole moment (field-independent basis, Debye-Ang):
   XX=            -61.4281   YY=            -70.9282   ZZ=            -79.1135
   XY=              3.1314   XZ=              0.5633   YZ=              1.8691

 Normal termination of Gaussian 16 at Tue Sep 17 10:46:57 2024.
