 Gaussian 16, Revision C.02,

 ----------------------------------------------------------------------
 #p B3LYP/6-31G(d,p) EmpiricalDispersion=GD3BJ opt freq scf(xqc,tight)
 integral(grid=ultrafine)
 ----------------------------------------------------------------------

 ----------------------------------
 opt-freq conformers_unique/conf_aa
 ----------------------------------
 Symbolic Z-matrix:
 Charge =  0 Multiplicity = 1

 SCF Done:  E(RB3LYP) =  -3257.76725341     A.U. after   15 cycles
 SCF Done:  E(RB3LYP) =  -3257.76861093     A.U. after   12 cycles
 SCF Done:  E(RB3LYP) =  -3257.76868091     A.U. after   10 cycles
 SCF Done:  E(RB3LYP) =  -3257.76868801     A.U. after    9 cycles
 SCF Done:  E(RB3LYP) =  -3257.76868953     A.U. after    7 cycles
 Optimization completed.
    -- Stationary point found.
 Normal termination of Gaussian 16 at Tue Sep 17 09:58:26 2024.

 ----------------------------------------------------------------------
 #P Geom=AllCheck Guess=TCheck SCRF=Check GenChk RB3LYP/6-31G(d,p) Freq
 ----------------------------------------------------------------------

 Structure from the checkpoint file:  "smiles_00091_conf_0.chk"
 ----------------------------------
 opt-freq conformers_unique/conf_aa
 ----------------------------------
 Charge =  0 Multiplicity = 1

 SCF Done:  E(RB3LYP) =  -3257.76868953     A.U. after    2 cycles

                      1                      2                      3
                      A                      A                      A
 Frequencies --     56.4393                80.4609               132.9987
 Red. masses --     10.2271                 9.0937                13.7343
 Frc consts  --      0.0192                 0.0347                 0.1431
 IR Inten    --      1.1576                 2.1602                 1.0793

                      4                      5                      6
                      A                      A                      A
 Frequencies --    166.9753               182.9040               199.0923
 Red. masses --     12.2185                 4.3978                 5.5056
 Frc consts  --      0.2007                 0.0867                 0.1286
 IR Inten    --      1.9493                 2.8963                 0.0832

                      7                      8                      9
                      A                      A                      A
 Frequencies --    236.4126               292.3097               330.0113
 Red. masses --     22.1706                 6.2117                 7.3029
 Frc consts  --      0.7301                 0.3127                 0.4686
 IR Inten    --      2.1145                 1.6100                 3.3295

                     10                     11                     12
                      A                      A                      A
 Frequencies --    385.4336               416.5339               442.2860
 Red. masses --     10.8906                10.1895                 5.0039
 Frc consts  --      0.9532                 1.0416                 0.5767
 IR Inten    --     18.7002                 9.5043                 2.5925

                     13                     14                     15
                      A                      A                      A
 Frequencies --    475.4429               481.8906               483.7971
 Red. masses --      6.8119                 3.3477                 9.4484
 Frc consts  --      0.9072                 0.4580                 1.3030
 IR Inten    --      2.1474                 0.0110                 0.8185

                     16                     17                     18
                      A                      A                      A
 Frequencies --    573.6578               575.8383               601.5151
 Red. masses --      5.3566                 7.8192                 8.3868
 Frc consts  --      1.0386                 1.5276                 1.7879
 IR Inten    --      7.5860                 6.4423                 0.8083

                     19                     20                     21
                      A                      A                      A
 Frequencies --    635.5963               678.7543               714.3454
 Red. masses --      4.3591                 8.3032                10.1278
 Frc consts  --      1.0376                 2.2538                 3.0450
 IR Inten    --      0.0429                 0.2982                12.3069

                     22                     23                     24
                      A                      A                      A
 Frequencies --    728.6245               745.9896               793.6312
 Red. masses --      4.9334                 5.4518                 2.0706
 Frc consts  --      1.5431                 1.7875                 0.7684
 IR Inten    --     13.3762                15.8554                26.6279

                     25                     26                     27
                      A                      A                      A
 Frequencies --    817.2455               857.3899               867.4183
 Red. masses --      5.3664                 2.8513                 7.9986
 Frc consts  --      2.1117                 1.2350                 3.5459
 IR Inten    --      0.3404                 9.0043                24.1395

                     28                     29                     30
                      A                      A                      A
 Frequencies --    878.4117               969.2090               972.8712
 Red. masses --      1.3812                 1.3928                 6.5507
 Frc consts  --      0.6279                 0.7709                 3.6530
 IR Inten    --     17.4693                 0.1027                 8.2446

                     31                     32                     33
                      A                      A                      A
 Frequencies --   1002.1708              1011.6681              1055.2140
 Red. masses --      1.3955                 1.3472                11.8606
 Frc consts  --      0.8258                 0.8124                 7.7811
 IR Inten    --      0.0086                 0.3245               213.9810

                     34                     35                     36
                      A                      A                      A
 Frequencies --   1072.7774              1122.8643              1156.6029
 Red. masses --      2.9344                 1.8775                 2.9425
 Frc consts  --      1.9897                 1.3947                 2.3192
 IR Inten    --     74.7384                21.0525               118.0523

                     37                     38                     39
                      A                      A                      A
 Frequencies --   1181.0467              1209.9817              1238.7415
 Red. masses --      2.4262                 1.3366                 1.7548
 Frc consts  --      1.9939                 1.1530                 1.5865
 IR Inten    --     56.3963                30.8531                 8.5472

                     40                     41                     42
                      A                      A                      A
 Frequencies --   1252.9113              1329.5358              1373.5643
 Red. masses --      2.7574                 2.7160                 5.3045
 Frc consts  --      2.5503                 2.8286                 5.8965
 IR Inten    --     49.1139               166.4002                50.0226

                     43                     44                     45
                      A                      A                      A
 Frequencies --   1390.1099              1449.1136              1451.3756
 Red. masses --      4.9059                 3.3481                 4.0478
 Frc consts  --      5.5855                 4.1425                 5.0238
 IR Inten    --      1.3342                11.9729                 7.6305

                     46                     47                     48
                      A                      A                      A
 Frequencies --   1501.9549              1554.8916              1622.9808
 Red. masses --      2.6463                 4.6122                 6.9724
 Frc consts  --      3.5173                 6.5698                10.8208
 IR Inten    --      9.4910                35.7604               123.1410

                     49                     50                     51
                      A                      A                      A
 Frequencies --   1641.0060              1670.4426              1825.5517
 Red. masses --      6.3710                 7.3665                13.1019
 Frc consts  --     10.1084                12.1109                25.7261
 IR Inten    --     80.0143                 2.5032               374.6749

                     52                     53                     54
                      A                      A                      A
 Frequencies --   1862.0301              3206.7284              3221.7647
 Red. masses --     13.0021                 1.0883                 1.0893
 Frc consts  --     26.5606                 6.5936                 6.6615
 IR Inten    --    389.9181                 4.9629                 0.2802

                     55                     56                     57
                      A                      A                      A
 Frequencies --   3225.7176              3230.0816              3233.1590
 Red. masses --      1.0912                 1.0958                 1.0950
 Frc consts  --      6.6896                 6.7364                 6.7441
 IR Inten    --      0.3815                 2.8163                 0.5154

 - Thermochemistry -
 -------------------
 Temperature   298.150 Kelvin.  Pressure   1.00000 Atm.
 Atom     1 has atomic number  8 and mass  15.99491

 Molecular mass:   275.94221 amu.
 Principal axes and moments of inertia in atomic units:
                           1         2         3
     Eigenvalues --  2171.866096762.507078934.37312
           X            0.99999  -0.00370   0.00001
           Y            0.00370   0.99999   0.00003
           Z           -0.00001  -0.00003   1.00000
 This molecule is an asymmetric top.
 Rotational symmetry number  1.
 Warning -- assumption of classical behavior for rotation
           may cause significant error
 Rotational temperatures (Kelvin)      0.03988     0.01281     0.00969
 Rotational constants (GHZ):           0.83096     0.26687     0.20200
 Zero-point vibrational energy     370049.7 (Joules/Mol)
                                   88.44399 (Kcal/Mol)
 Warning -- explicit consideration of  18 degrees of freedom as
           vibrations may cause significant error
 Vibrational temperatures:     81.20   115.77   191.36   240.24   263.16
          (Kelvin)            286.45   340.15   420.57   474.81   554.55
                              599.30   636.35   684.06   693.33   696.08
                              825.37   828.50   865.45   914.48   976.58
                             1027.78  1048.33  1073.31  1141.86  1175.83
                             1233.59  1248.02  1263.84  1394.48  1399.74
                             1441.90  1455.56  1518.22  1543.49  1615.55
                             1664.09  1699.26  1740.89  1782.27  1802.66
                             1912.91  1976.25  2000.06  2084.95  2088.21
                             2160.98  2237.14  2335.11  2361.04  2403.39
                             2626.56  2679.05  4613.77  4635.40  4641.09
                             4647.37  4651.79

 Zero-point correction=                           0.140944 (Hartree/Particle)
 Thermal correction to Energy=                    0.152519
 Thermal correction to Enthalpy=                  0.153463
 Thermal correction to Gibbs Free Energy=         0.101927
 Sum of electronic and zero-point Energies=          -3257.627745
 Sum of electronic and thermal Energies=             -3257.616170
 Sum of electronic and thermal Enthalpies=           -3257.615226
 Sum of electronic and thermal Free Energies=        -3257.666763

                     E (Thermal)             CV                S
                      KCal/Mol        Cal/Mol-Kelvin    Cal/Mol-Kelvin
 Total                   95.707             45.261            108.468
 Electronic               0.000              0.000              0.000
 Translational            0.889              2.981             42.744
 Rotational               0.889              2.981             33.239
 Vibrational             93.930             39.300             32.485
 Vibration     1          0.596              1.975              4.578
 Vibration     2          0.600              1.962              3.880
 Vibration     3          0.613              1.920              2.902
 Vibration     4          0.624              1.883              2.469
 Vibration     5          0.630              1.863              2.299
 Vibration     6          0.637              1.841              2.141
 Vibration     7          0.655              1.785              1.830
 Vibration     8          0.688              1.688              1.461
 Vibration     9          0.713              1.616              1.260
 Vibration    10          0.754              1.501              1.018
 Vibration    11          0.780              1.434              0.904
 Vibration    12          0.802              1.378              0.819
 Vibration    13          0.832              1.305              0.722
 Vibration    14          0.838              1.290              0.705
 Vibration    15          0.840              1.286              0.700
 Vibration    16          0.930              1.088              0.497
 Vibration    17          0.932              1.084              0.493
 Vibration    18          0.960              1.029              0.447

 Optimization completed.
    -- Stationary point found.
 Normal termination of Gaussian 16 at Tue Sep 17 10:00:55 2024.

 ----------------------------------------------------------------------
 #p M062X/def2tzvp geom=check guess=read scf(xqc,tight) integral(grid=u
 ltrafine) scrf(SMD, solvent=1,4-Dioxane) polar prop=efg volume
 ----------------------------------------------------------------------

 ---
 spe
 ---
 Structure from the checkpoint file:  "smiles_00091_conf_0.chk"
 Charge =  0 Multiplicity = 1

 SCF Done:  E(RM062X) =  -3260.20561769     A.U. after   13 cycles

 The electronic state is 1-A.
 Alpha  occ. eigenvalues -- -485.39689 -63.38157 -57.20106 -57.19868 -57.19854
 Alpha  occ. eigenvalues --  -19.70278 -19.63903 -19.63893 -10.70419 -10.70400
 Alpha  occ. eigenvalues --  -10.63643 -10.59847 -10.59566 -10.58812 -10.58744
 Alpha  occ. eigenvalues --  -10.58553 -10.58194 -10.58053 -10.58039 -10.57311
 Alpha  occ. eigenvalues --   -9.04793  -6.87210  -6.86331  -6.86285  -2.90588
 Alpha  occ. eigenvalues --   -2.90275  -2.90228  -2.89408  -2.89408  -1.26860
 Alpha  occ. eigenvalues --   -1.20151  -1.15315  -1.02848  -0.96984  -0.94277
 Alpha  occ. eigenvalues --   -0.88981  -0.87695  -0.85204  -0.79307  -0.75106
 Alpha  occ. eigenvalues --   -0.73958  -0.73715  -0.66314  -0.62385  -0.61345
 Alpha  occ. eigenvalues --   -0.60085  -0.58608  -0.56734  -0.55701  -0.55067
 Alpha  occ. eigenvalues --   -0.53782  -0.51566  -0.50639  -0.50329  -0.50045
 Alpha  occ. eigenvalues --   -0.47969  -0.46850  -0.44090  -0.43643  -0.43361
 Alpha  occ. eigenvalues --   -0.41329  -0.40098  -0.38889  -0.37444  -0.36975
 Alpha  occ. eigenvalues --   -0.35667  -0.33434  -0.29971
 Alpha virt. eigenvalues --   -0.08245  -0.02213  -0.02061   0.02096   0.03021
 Alpha virt. eigenvalues --    0.08186   0.09490   0.09989   0.10179   0.11098
 Alpha virt. eigenvalues --    0.11738   0.12647   0.13530   0.14445   0.15201

 Mulliken charges:
               1
     1  O   -0.297846
     2  C    0.328338
     3  O   -0.192032
     4  C    0.327166
     5  O   -0.298445
     6  C   -0.073588
     7  C   -0.149390
     8  C   -0.149887
     9  C    0.001343
    10  Br  -0.069029
    11  C    0.077380
    12  C   -0.181071
    13  C   -0.149854
    14  C   -0.150348
    15  C   -0.052272
    16  C    0.105686
    17  H    0.191687
    18  H    0.187107
    19  H    0.178788
    20  H    0.176650
    21  H    0.189619
 Sum of Mulliken charges =  -0.00000

 Dipole moment (field-independent basis, Debye):
    X=              6.2194    Y=              2.1563    Z=              0.0007  Tot=              6.5826
 Quadrupole moment (field-independent basis, Debye-Ang):
   XX=           -129.2071   YY=            -95.7001   ZZ=           -103.5499
   XY=             -5.3485   XZ=             -0.0022   YZ=             -0.0025

  Exact polarizability:     264.543      -2.423     237.865      -0.001      -0.004      89.108
 Approx polarizability:     283.463      -0.810     278.851      -0.001      -0.001     117.999

 Normal termination of Gaussian 16 at Tue Sep 17 11:21:43 2024.
 Gaussian 16:  ES64L-G16RevC.02  7-Dec-2021

 ----------------------------------------------------------------------
 #p M062X/def2tzvp geom=check guess=read scf(xqc,tight) integral(grid=u
 ltrafine) scrf(SMD, solvent=1,4-Dioxane) nmr=giao
 ----------------------------------------------------------------------

 ---
 spe
 ---
 Structure from the checkpoint file:  "smiles_00091_conf_0.chk"
 Charge =  0 Multiplicity = 1

                         Standard orientation:
 ---------------------------------------------------------------------
 Center     Atomic      Atomic             Coordinates (Angstroms)
 Number     Number       Type             X           Y           Z
 ---------------------------------------------------------------------
      1          8           0       -4.112355    1.484249   -0.000145
      2          6           0       -3.181411    0.719872   -0.000138
      3          8           0       -3.455749   -0.639644    0.000249
      4          6           0       -2.505881   -1.649679    0.000370
      5          8           0       -2.892132   -2.790909   -0.000190
      6          6           0       -1.088037   -1.239202    0.000159
      7          6           0       -0.099759   -2.205133    0.000108
      8          6           0        1.256507   -1.833943    0.000052
      9          6           0        1.605356   -0.499419    0.000031
     10         35           0        3.457969   -0.055672   -0.000059
     11          6           0        0.628336    0.536129    0.000027
     12          6           0        0.925526    1.922455   -0.000033
     13          6           0       -0.083452    2.862757   -0.000077
     14          6           0       -1.434362    2.465772   -0.000078
     15          6           0       -1.759380    1.122252   -0.000012
     16          6           0       -0.743647    0.134263    0.000071
     17          1           0       -0.387394   -3.250321    0.000158
     18          1           0        2.029330   -2.592627    0.000045
     19          1           0        1.963975    2.231192   -0.000047
     20          1           0        0.164485    3.918616   -0.000134
     21          1           0       -2.236195    3.195340   -0.000157
 ---------------------------------------------------------------------

 SCF Done:  E(RM062X) =  -3260.20561769     A.U. after    1 cycles
