 Gaussian 16, Revision C.02,

 ----------------------------------------------------------------------
 #p B3LYP/gen pseudo=read EmpiricalDispersion=GD3BJ opt freq scf(xqc,ti
 ght) integral(grid=ultrafine)
 ----------------------------------------------------------------------

 ----------------------------------
 opt-freq conformers_unique/conf_aa
 ----------------------------------
 Symbolic Z-matrix:
 Charge =  0 Multiplicity = 1

 SCF Done:  E(RB3LYP) =  -400.341344580     A.U. after   14 cycles
 SCF Done:  E(RB3LYP) =  -400.342888482     A.U. after   12 cycles
 SCF Done:  E(RB3LYP) =  -400.342943934     A.U. after   10 cycles
 SCF Done:  E(RB3LYP) =  -400.342947062     A.U. after    8 cycles
 SCF Done:  E(RB3LYP) =  -400.342947653     A.U. after    7 cycles
 Optimization completed.
    -- Stationary point found.
 Normal termination of Gaussian 16 at Tue Sep 17 09:53:59 2024.

 ------------------------------------------------------------------
 #P Geom=AllCheck Guess=TCheck SCRF=Check GenChk RB3LYP/ChkBas Freq
 ------------------------------------------------------------------

 Structure from the checkpoint file:  "smiles_00095_conf_0.chk"
 ----------------------------------
 opt-freq conformers_unique/conf_aa
 ----------------------------------
 Charge =  0 Multiplicity = 1

 SCF Done:  E(RB3LYP) =  -400.342947653     A.U. after    1 cycles

                      1                      2                      3
                      A                      A                      A
 Frequencies --     50.2478                63.6529               141.6618
 Red. masses --      3.3376                 4.3084                 4.8254
 Frc consts  --      0.0050                 0.0103                 0.0571
 IR Inten    --      0.0070                 0.0152                 0.0143

                      4                      5                      6
                      A                      A                      A
 Frequencies --    187.5714               193.2869               242.2229
 Red. masses --      2.8846                 7.1180                 1.1429
 Frc consts  --      0.0598                 0.1567                 0.0395
 IR Inten    --      0.0107                 0.6527                 0.1259

                      7                      8                      9
                      A                      A                      A
 Frequencies --    266.5292               284.1453               334.8908
 Red. masses --      1.6157                 1.5510                 1.0452
 Frc consts  --      0.0676                 0.0738                 0.0691
 IR Inten    --      0.0077                 0.2975                 0.0000

                     10                     11                     12
                      A                      A                      A
 Frequencies --    337.9222               349.8276               388.4251
 Red. masses --      2.6456                 2.7644                 3.2289
 Frc consts  --      0.1780                 0.1993                 0.2870
 IR Inten    --      0.1772                 0.1061                 2.7677

                     13                     14                     15
                      A                      A                      A
 Frequencies --    406.9348               417.9229               467.5010
 Red. masses --      2.8586                 2.9501                 2.9087
 Frc consts  --      0.2789                 0.3036                 0.3746
 IR Inten    --      0.9539                 0.0131                 0.2204

                     16                     17                     18
                      A                      A                      A
 Frequencies --    550.9845               561.7503               647.0363
 Red. masses --      2.8611                 3.1608                 7.1114
 Frc consts  --      0.5118                 0.5877                 1.7541
 IR Inten    --     16.5050                 4.0641                 0.3751

                     19                     20                     21
                      A                      A                      A
 Frequencies --    729.4999               733.0836               838.5967
 Red. masses --      5.4250                 3.3571                 1.5359
 Frc consts  --      1.7010                 1.0630                 0.6364
 IR Inten    --     21.5519                 1.8265                25.8075

                     22                     23                     24
                      A                      A                      A
 Frequencies --    842.4918               851.9866               937.5113
 Red. masses --      1.2674                 2.5485                 1.7546
 Frc consts  --      0.5300                 1.0899                 0.9086
 IR Inten    --      1.8910                 0.4256                 0.9831

                     25                     26                     27
                      A                      A                      A
 Frequencies --    949.3838               965.3854               968.6333
 Red. masses --      1.6785                 1.2410                 1.2793
 Frc consts  --      0.8914                 0.6814                 0.7072
 IR Inten    --      0.7699                 0.0008                 0.0594

                     28                     29                     30
                      A                      A                      A
 Frequencies --    974.9612              1016.4750              1049.8000
 Red. masses --      1.3100                 5.6659                 1.4158
 Frc consts  --      0.7337                 3.4491                 0.9193
 IR Inten    --      0.0772                72.5715                 3.0596

                     31                     32                     33
                      A                      A                      A
 Frequencies --   1056.8536              1090.4171              1140.9565
 Red. masses --      1.3968                 2.8563                 2.1474
 Frc consts  --      0.9192                 2.0009                 1.6471
 IR Inten    --      0.0002                 8.0930                29.9796

                     34                     35                     36
                      A                      A                      A
 Frequencies --   1148.2782              1225.6056              1237.5133
 Red. masses --      1.4429                 1.1354                 2.7441
 Frc consts  --      1.1209                 1.0049                 2.4760
 IR Inten    --      3.8448                 0.0235                 3.3879

                     37                     38                     39
                      A                      A                      A
 Frequencies --   1240.5767              1301.7707              1337.8037
 Red. masses --      2.5126                 3.0551                 9.9237
 Frc consts  --      2.2784                 3.0503                10.4643
 IR Inten    --      0.6005                15.4661                 0.4117

                     40                     41                     42
                      A                      A                      A
 Frequencies --   1338.4472              1410.9968              1413.2047
 Red. masses --      1.2709                 1.3118                 1.2157
 Frc consts  --      1.3415                 1.5387                 1.4305
 IR Inten    --      0.0421                 2.7661                 4.0255

                     43                     44                     45
                      A                      A                      A
 Frequencies --   1437.4765              1444.9351              1496.0542
 Red. masses --      2.4127                 1.2197                 1.0489
 Frc consts  --      2.9373                 1.5004                 1.3832
 IR Inten    --     14.1424                 3.5741                 0.0047

                     46                     47                     48
                      A                      A                      A
 Frequencies --   1499.7200              1503.1431              1516.8891
 Red. masses --      1.0446                 1.0628                 1.1055
 Frc consts  --      1.3843                 1.4149                 1.4987
 IR Inten    --      0.1471                 2.7955                11.6108

                     49                     50                     51
                      A                      A                      A
 Frequencies --   1522.0310              1531.4162              1536.7263
 Red. masses --      1.0506                 1.5045                 1.2845
 Frc consts  --      1.4339                 2.0789                 1.7872
 IR Inten    --      4.8538                14.1161                42.8232

                     52                     53                     54
                      A                      A                      A
 Frequencies --   1619.6167              1645.0386              3042.9966
 Red. masses --      6.7992                 5.6022                 1.0349
 Frc consts  --     10.5082                 8.9322                 5.6459
 IR Inten    --      0.8148                 6.8554                23.4296

                     55                     56                     57
                      A                      A                      A
 Frequencies --   3043.3777              3050.4256              3114.0020
 Red. masses --      1.0350                 1.0363                 1.1025
 Frc consts  --      5.6483                 5.6815                 6.2988
 IR Inten    --     26.0321                22.8575                 2.8769

                     58                     59                     60
                      A                      A                      A
 Frequencies --   3114.5990              3118.6121              3121.9727
 Red. masses --      1.1026                 1.1030                 1.1016
 Frc consts  --      6.3019                 6.3203                 6.3262
 IR Inten    --      3.5205                23.8562                91.4137

                     61                     62                     63
                      A                      A                      A
 Frequencies --   3125.5804              3127.9373              3193.3693
 Red. masses --      1.1025                 1.1017                 1.0877
 Frc consts  --      6.3457                 6.3510                 6.5352
 IR Inten    --     18.2266                41.2991                10.3980

                     64                     65                     66
                      A                      A                      A
 Frequencies --   3212.1107              3219.8472              3228.0446
 Red. masses --      1.0881                 1.0940                 1.0935
 Frc consts  --      6.6146                 6.6825                 6.7134
 IR Inten    --      0.6609                 7.4918                 7.7183

 - Thermochemistry -
 -------------------
 Temperature   298.150 Kelvin.  Pressure   1.00000 Atm.
 Atom     1 has atomic number  6 and mass  12.00000

 Molecular mass:   260.00213 amu.
 Principal axes and moments of inertia in atomic units:
                           1         2         3
     Eigenvalues --   708.835547626.930587936.61626
           X            1.00000   0.00035  -0.00000
           Y           -0.00035   1.00000   0.00000
           Z            0.00000  -0.00000   1.00000
 This molecule is an asymmetric top.
 Rotational symmetry number  1.
 Warning -- assumption of classical behavior for rotation
           may cause significant error
 Rotational temperatures (Kelvin)      0.12219     0.01136     0.01091
 Rotational constants (GHZ):           2.54606     0.23663     0.22739
 Zero-point vibrational energy     533287.3 (Joules/Mol)
                                  127.45871 (Kcal/Mol)
 Warning -- explicit consideration of  17 degrees of freedom as
           vibrations may cause significant error
 Vibrational temperatures:     72.30    91.58   203.82   269.87   278.10
          (Kelvin)            348.50   383.48   408.82   481.83   486.19
                              503.32   558.86   585.49   601.30   672.63
                              792.74   808.23   930.94  1049.59  1054.74
                             1206.55  1212.16  1225.82  1348.87  1365.95
                             1388.97  1393.65  1402.75  1462.48  1510.43
                             1520.58  1568.87  1641.58  1652.12  1763.37
                             1780.51  1784.91  1872.96  1924.80  1925.73
                             2030.11  2033.29  2068.21  2078.94  2152.49
                             2157.76  2162.69  2182.47  2189.86  2203.37
                             2211.01  2330.27  2366.84  4378.19  4378.74
                             4388.88  4480.35  4481.21  4486.99  4491.82
                             4497.01  4500.40  4594.55  4621.51  4632.64
                             4644.44

 Zero-point correction=                           0.203118 (Hartree/Particle)
 Thermal correction to Energy=                    0.214508
 Thermal correction to Enthalpy=                  0.215452
 Thermal correction to Gibbs Free Energy=         0.164615
 Sum of electronic and zero-point Energies=           -400.139829
 Sum of electronic and thermal Energies=              -400.128440
 Sum of electronic and thermal Enthalpies=            -400.127496
 Sum of electronic and thermal Free Energies=         -400.178333

                     E (Thermal)             CV                S
                      KCal/Mol        Cal/Mol-Kelvin    Cal/Mol-Kelvin
 Total                  134.606             43.535            106.996
 Electronic               0.000              0.000              0.000
 Translational            0.889              2.981             42.566
 Rotational               0.889              2.981             32.129
 Vibrational            132.828             37.573             32.302
 Vibration     1          0.595              1.977              4.808
 Vibration     2          0.597              1.972              4.341
 Vibration     3          0.615              1.912              2.781
 Vibration     4          0.632              1.857              2.252
 Vibration     5          0.635              1.849              2.196
 Vibration     6          0.658              1.776              1.786
 Vibration     7          0.672              1.735              1.619
 Vibration     8          0.683              1.703              1.509
 Vibration     9          0.716              1.606              1.236
 Vibration    10          0.718              1.600              1.222
 Vibration    11          0.727              1.576              1.167
 Vibration    12          0.757              1.495              1.006
 Vibration    13          0.772              1.455              0.938
 Vibration    14          0.781              1.431              0.899
 Vibration    15          0.825              1.322              0.745
 Vibration    16          0.906              1.138              0.542
 Vibration    17          0.917              1.114              0.520

 Optimization completed.
    -- Stationary point found.
 Normal termination of Gaussian 16 at Tue Sep 17 09:55:48 2024.

 ----------------------------------------------------------------------
 #p M062X/def2tzvp geom=check guess=read scf(xqc,tight) integral(grid=u
 ltrafine) scrf(SMD, solvent=1,4-Dioxane) polar prop=efg volume
 ----------------------------------------------------------------------

 ---
 spe
 ---
 Structure from the checkpoint file:  "smiles_00095_conf_0.chk"
 Charge =  0 Multiplicity = 1

 SCF Done:  E(RM062X) =  -686.492918665     A.U. after   21 cycles

  Exact polarizability:     245.920       0.410     158.478       0.000      -0.000     116.622
 Approx polarizability:     232.408       0.588     189.674       0.000      -0.000     138.589

 1\1\GINC-HPC-52-40\SP\RM062X\def2TZVP\C10H13I1\MANTIND\17-Sep-2024\0\\
 #p M062X/def2tzvp geom=check guess=read scf(xqc,tight) integral(grid=u
 ltrafine) scrf(SMD, solvent=1,4-Dioxane) polar prop=efg volume\\spe\\0
 ,1\C,0,-4.5212734104,1.4063702009,-0.0000047151\C,0,-3.9068190455,-0.0
 028428566,0.0000000815\C,0,-4.3994933644,-0.746180262,-1.2607889798\C,
 0,-4.3994930011,-0.7461716982,1.2607943599\C,0,-2.3729962004,0.0320368
 554,-0.0000000313\C,0,-1.6397033725,1.2236694092,-0.0000028492\C,0,-0.
 2420940798,1.2266290101,-0.0000026174\C,0,0.4401745613,0.0158060782,0.

 Normal termination of Gaussian 16 at Tue Sep 17 10:54:47 2024.
 Gaussian 16:  ES64L-G16RevC.02  7-Dec-2021

 ----------------------------------------------------------------------
 #p M062X/def2tzvp geom=check guess=read scf(xqc,tight) integral(grid=u
 ltrafine) scrf(SMD, solvent=1,4-Dioxane) nmr=giao
 ----------------------------------------------------------------------

 ---
 spe
 ---
 Structure from the checkpoint file:  "smiles_00095_conf_0.chk"
 Charge =  0 Multiplicity = 1

                         Standard orientation:
 ---------------------------------------------------------------------
 Center     Atomic      Atomic             Coordinates (Angstroms)
 Number     Number       Type             X           Y           Z
 ---------------------------------------------------------------------
      1          6           0       -4.155662    1.411500   -0.000005
      2          6           0       -3.543555    0.001266   -0.000000
      3          6           0       -4.037466   -0.741250   -1.260789
      4          6           0       -4.037466   -0.741242    1.260794
      5          6           0       -2.009676    0.033592   -0.000001
      6          6           0       -1.274400    1.224002   -0.000003
      7          6           0        0.123212    1.224634   -0.000003
      8          6           0        0.803464    0.012677    0.000000
      9         53           0        2.946182   -0.003701    0.000000
     10          6           0        0.105602   -1.193582    0.000003
     11          6           0       -1.286932   -1.169844    0.000003
     12          1           0       -3.862255    1.980979    0.887535
     13          1           0       -5.247382    1.337807   -0.000005
     14          1           0       -3.862255    1.980973   -0.887549
     15          1           0       -3.698642   -0.233226   -2.169041
     16          1           0       -5.132099   -0.777032   -1.276097
     17          1           0       -3.669064   -1.770316   -1.295538
     18          1           0       -3.669063   -1.770307    1.295549
     19          1           0       -3.698642   -0.233211    2.169041
     20          1           0       -5.132099   -0.777024    1.276102
     21          1           0       -1.782531    2.180773   -0.000006
     22          1           0        0.664469    2.163717   -0.000005
     23          1           0        0.634755   -2.139517    0.000005
     24          1           0       -1.815553   -2.117961    0.000005
 ---------------------------------------------------------------------

 SCF Done:  E(RM062X) =  -686.492918665     A.U. after    1 cycles

      1  C    Isotropic =   155.6546   Anisotropy =    36.0292

      2  C    Isotropic =   147.2639   Anisotropy =    14.4683

      3  C    Isotropic =   151.3945   Anisotropy =    46.3687

      4  C    Isotropic =   151.3944   Anisotropy =    46.3687

      5  C    Isotropic =     7.3382   Anisotropy =   243.7405

      6  C    Isotropic =    37.0688   Anisotropy =   199.9893

      7  C    Isotropic =    26.9651   Anisotropy =   181.6434

      8  C    Isotropic =    31.8097   Anisotropy =   126.5325

      9  I    Isotropic =   435.8037   Anisotropy =    72.1262

     10  C    Isotropic =    27.1251   Anisotropy =   181.4949

     11  C    Isotropic =    33.0087   Anisotropy =   207.0813

     12  H    Isotropic =    30.3798   Anisotropy =     8.5927

     13  H    Isotropic =    30.8027   Anisotropy =     8.4317

     14  H    Isotropic =    30.3798   Anisotropy =     8.5927

     15  H    Isotropic =    30.8430   Anisotropy =     8.2181

     16  H    Isotropic =    30.7601   Anisotropy =     9.3580

     17  H    Isotropic =    30.3444   Anisotropy =     7.9088

     18  H    Isotropic =    30.3444   Anisotropy =     7.9088

     19  H    Isotropic =    30.8430   Anisotropy =     8.2181

     20  H    Isotropic =    30.7601   Anisotropy =     9.3580

     21  H    Isotropic =    23.7739   Anisotropy =    12.1389

     22  H    Isotropic =    23.6648   Anisotropy =    12.3506

     23  H    Isotropic =    23.6245   Anisotropy =    12.3137

     24  H    Isotropic =    23.5665   Anisotropy =    11.8034

 The electronic state is 1-A.
 Alpha  occ. eigenvalues --  -10.59302 -10.55660 -10.55479 -10.55371 -10.55326
 Alpha  occ. eigenvalues --  -10.54784 -10.54721 -10.52305 -10.52304 -10.52268
 Alpha  occ. eigenvalues --   -7.10079  -5.09408  -5.08386  -5.08386  -2.06240
 Alpha  occ. eigenvalues --   -2.05814  -2.05809  -2.04963  -2.04962  -0.97571
 Alpha  occ. eigenvalues --   -0.92137  -0.85134  -0.84609  -0.77727  -0.77547
 Alpha  occ. eigenvalues --   -0.77168  -0.69435  -0.68526  -0.63152  -0.56977
 Alpha  occ. eigenvalues --   -0.53754  -0.52485  -0.50831  -0.50664  -0.49655
 Alpha  occ. eigenvalues --   -0.48602  -0.46530  -0.44099  -0.44056  -0.42662
 Alpha  occ. eigenvalues --   -0.42039  -0.40865  -0.39215  -0.37775  -0.37221
 Alpha  occ. eigenvalues --   -0.34324  -0.31909  -0.31606  -0.28477
 Alpha virt. eigenvalues --   -0.00086   0.01004   0.01437   0.06680   0.09768
 Alpha virt. eigenvalues --    0.10146   0.11251   0.12150   0.12199   0.12844
 Alpha virt. eigenvalues --    0.13564   0.14864   0.15149   0.16193   0.16463

 Mulliken charges:
               1
     1  C   -0.535451
     2  C   -0.056401
     3  C   -0.435403
     4  C   -0.435403
     5  C    0.119220
     6  C   -0.159874
     7  C   -0.206801
     8  C    0.069851
     9  I   -0.115395
    10  C   -0.213867
    11  C   -0.222164
    12  H    0.172394
    13  H    0.164923
    14  H    0.172394
    15  H    0.163500
    16  H    0.156908
    17  H    0.152193
    18  H    0.152193
    19  H    0.163500
    20  H    0.156908
    21  H    0.185223
    22  H    0.182469
    23  H    0.184457
    24  H    0.184626
 Sum of Mulliken charges =  -0.00000

 Dipole moment (field-independent basis, Debye):
    X=             -2.8243    Y=             -0.0157    Z=             -0.0000  Tot=              2.8243
 Quadrupole moment (field-independent basis, Debye-Ang):
   XX=            -84.2525   YY=            -83.5143   ZZ=            -92.8777
   XY=              0.0251   XZ=              0.0000   YZ=             -0.0000

 1\1\GINC-HPC-52-40\SP\RM062X\def2TZVP\C10H13I1\MANTIND\17-Sep-2024\0\\
 #p M062X/def2tzvp geom=check guess=read scf(xqc,tight) integral(grid=u
 ltrafine) scrf(SMD, solvent=1,4-Dioxane) nmr=giao\\spe\\0,1\C,0,-4.521
 2734104,1.4063702009,-0.0000047151\C,0,-3.9068190455,-0.0028428566,0.0
 000000815\C,0,-4.3994933644,-0.746180262,-1.2607889798\C,0,-4.39949300
 11,-0.7461716982,1.2607943599\C,0,-2.3729962004,0.0320368554,-0.000000
 0313\C,0,-1.6397033725,1.2236694092,-0.0000028492\C,0,-0.2420940798,1.
 2266290101,-0.0000026174\C,0,0.4401745613,0.0158060782,0.0000004877\I,

 Normal termination of Gaussian 16 at Tue Sep 17 11:10:51 2024.
