 Gaussian 16, Revision C.02,

 ----------------------------------------------------------------------
 #p B3LYP/6-31G(d,p) EmpiricalDispersion=GD3BJ opt freq scf(xqc,tight)
 integral(grid=ultrafine)
 ----------------------------------------------------------------------

 ----------------------------------
 opt-freq conformers_unique/conf_aa
 ----------------------------------
 Symbolic Z-matrix:
 Charge =  0 Multiplicity = 1

 SCF Done:  E(RB3LYP) =  -2858.74627044     A.U. after   14 cycles
 SCF Done:  E(RB3LYP) =  -2858.74745374     A.U. after   12 cycles
 SCF Done:  E(RB3LYP) =  -2858.74750964     A.U. after   10 cycles
 SCF Done:  E(RB3LYP) =  -2858.74751461     A.U. after    9 cycles
 Optimization completed.
    -- Stationary point found.
 Normal termination of Gaussian 16 at Tue Sep 17 09:52:19 2024.

 ----------------------------------------------------------------------
 #P Geom=AllCheck Guess=TCheck SCRF=Check GenChk RB3LYP/6-31G(d,p) Freq
 ----------------------------------------------------------------------

 Structure from the checkpoint file:  "smiles_00012_conf_0.chk"
 ----------------------------------
 opt-freq conformers_unique/conf_aa
 ----------------------------------
 Charge =  0 Multiplicity = 1

 SCF Done:  E(RB3LYP) =  -2858.74751461     A.U. after    1 cycles

                      1                      2                      3
                      A                      A                      A
 Frequencies --    131.2539               158.7545               216.9578
 Red. masses --      4.3039                 1.0410                 4.6904
 Frc consts  --      0.0437                 0.0155                 0.1301
 IR Inten    --      0.4391                 0.6287                 0.7335

                      4                      5                      6
                      A                      A                      A
 Frequencies --    249.2005               298.6567               411.0731
 Red. masses --      3.3290                11.3128                 3.1507
 Frc consts  --      0.1218                 0.5945                 0.3137
 IR Inten    --      2.9273                 4.0326                 2.5909

                      7                      8                      9
                      A                      A                      A
 Frequencies --    457.2768               524.7648               557.1667
 Red. masses --      3.9909                 3.3738                 5.6771
 Frc consts  --      0.4917                 0.5474                 1.0384
 IR Inten    --      0.1158                 0.4467                 2.7959

                     10                     11                     12
                      A                      A                      A
 Frequencies --    676.5022               752.8377               808.4309
 Red. masses --      7.3257                 5.4340                 1.2077
 Frc consts  --      1.9753                 1.8146                 0.4650
 IR Inten    --     19.0583                 4.8499                23.9630

                     13                     14                     15
                      A                      A                      A
 Frequencies --    821.2873               952.0802               987.3314
 Red. masses --      5.7544                 1.3277                 1.3344
 Frc consts  --      2.2869                 0.7091                 0.7664
 IR Inten    --     11.4566                 0.0050                 0.1915

                     16                     17                     18
                      A                      A                      A
 Frequencies --   1013.2482              1069.2756              1074.8421
 Red. masses --      1.5083                 1.5155                 5.8052
 Frc consts  --      0.9124                 1.0209                 3.9515
 IR Inten    --     10.9952                 3.2578                91.8812

                     19                     20                     21
                      A                      A                      A
 Frequencies --   1093.3413              1153.9050              1235.0668
 Red. masses --      2.4140                 1.3545                 2.3266
 Frc consts  --      1.7002                 1.0626                 2.0910
 IR Inten    --      4.9688                 6.6523                16.9727

                     22                     23                     24
                      A                      A                      A
 Frequencies --   1299.7578              1319.2250              1431.1861
 Red. masses --      1.8313                 5.0049                 1.2417
 Frc consts  --      1.8228                 5.1319                 1.4984
 IR Inten    --      0.2438                 2.1754                 1.3892

                     25                     26                     27
                      A                      A                      A
 Frequencies --   1439.1178              1485.3840              1492.2701
 Red. masses --      2.4259                 2.0003                 1.0428
 Frc consts  --      2.9602                 2.6003                 1.3682
 IR Inten    --     96.0934                14.1322                 7.9465

                     28                     29                     30
                      A                      A                      A
 Frequencies --   1507.4290              1613.2725              1640.6499
 Red. masses --      1.2266                 4.9819                 6.6562
 Frc consts  --      1.6422                 7.6395                10.5562
 IR Inten    --     23.3380                31.6595                31.8191

                     31                     32                     33
                      A                      A                      A
 Frequencies --   3051.4857              3113.6367              3136.5995
 Red. masses --      1.0357                 1.1007                 1.1036
 Frc consts  --      5.6822                 6.2869                 6.3970
 IR Inten    --     13.0106                 7.7650                16.4063

                     34                     35                     36
                      A                      A                      A
 Frequencies --   3181.5393              3188.0872              3216.5124
 Red. masses --      1.0886                 1.0909                 1.0967
 Frc consts  --      6.4921                 6.5326                 6.6853
 IR Inten    --      9.9089                16.5873                15.6557

 - Thermochemistry -
 -------------------
 Temperature   298.150 Kelvin.  Pressure   1.00000 Atm.
 Atom     1 has atomic number  6 and mass  12.00000

 Molecular mass:   170.96836 amu.
 Principal axes and moments of inertia in atomic units:
                           1         2         3
     Eigenvalues --   641.297461791.415322421.62492
           X            0.99983  -0.01841   0.00004
           Y            0.01841   0.99983   0.00004
           Z           -0.00004  -0.00004   1.00000
 This molecule is an asymmetric top.
 Rotational symmetry number  1.
 Warning -- assumption of classical behavior for rotation
           may cause significant error
 Rotational temperatures (Kelvin)      0.13506     0.04835     0.03577
 Rotational constants (GHZ):           2.81420     1.00744     0.74526
 Zero-point vibrational energy     279683.4 (Joules/Mol)
                                   66.84593 (Kcal/Mol)
 Warning -- explicit consideration of   9 degrees of freedom as
           vibrations may cause significant error
 Vibrational temperatures:    188.85   228.41   312.15   358.54   429.70
          (Kelvin)            591.44   657.92   755.02   801.64   973.34
                             1083.17  1163.15  1181.65  1369.83  1420.55
                             1457.84  1538.45  1546.46  1573.07  1660.21
                             1776.99  1870.06  1898.07  2059.16  2070.57
                             2137.14  2147.04  2168.85  2321.14  2360.53
                             4390.41  4479.83  4512.87  4577.53  4586.95
                             4627.84

 Zero-point correction=                           0.106526 (Hartree/Particle)
 Thermal correction to Energy=                    0.113708
 Thermal correction to Enthalpy=                  0.114653
 Thermal correction to Gibbs Free Energy=         0.073844
 Sum of electronic and zero-point Energies=          -2858.640989
 Sum of electronic and thermal Energies=             -2858.633806
 Sum of electronic and thermal Enthalpies=           -2858.632862
 Sum of electronic and thermal Free Energies=        -2858.673670

                     E (Thermal)             CV                S
                      KCal/Mol        Cal/Mol-Kelvin    Cal/Mol-Kelvin
 Total                   71.353             26.304             85.889
 Electronic               0.000              0.000              0.000
 Translational            0.889              2.981             41.317
 Rotational               0.889              2.981             29.410
 Vibrational             69.576             20.342             15.162
 Vibration     1          0.612              1.922              2.928
 Vibration     2          0.621              1.893              2.565
 Vibration     3          0.646              1.815              1.984
 Vibration     4          0.662              1.764              1.736
 Vibration     5          0.692              1.676              1.424
 Vibration     6          0.775              1.446              0.923
 Vibration     7          0.815              1.345              0.774
 Vibration     8          0.880              1.195              0.599
 Vibration     9          0.913              1.124              0.530

                           ! Non-Optimized Parameters !
 Normal termination of Gaussian 16 at Tue Sep 17 09:52:48 2024.

 ----------------------------------------------------------------------
 #p M062X/def2tzvp geom=check guess=read scf(xqc,tight) integral(grid=u
 ltrafine) scrf(SMD, solvent=1,4-Dioxane) polar prop=efg volume
 ----------------------------------------------------------------------

 ---
 spe
 ---
 Structure from the checkpoint file:  "smiles_00012_conf_0.chk"
 Charge =  0 Multiplicity = 1

 SCF Done:  E(RM062X) =  -2861.18346809     A.U. after   12 cycles

  Exact polarizability:     147.076      -5.975     116.290      -0.003      -0.001      64.010
 Approx polarizability:     156.676      -4.230     130.557      -0.003      -0.000      79.285

 Normal termination of Gaussian 16 at Tue Sep 17 09:59:55 2024.
 Gaussian 16:  ES64L-G16RevC.02  7-Dec-2021

 ----------------------------------------------------------------------
 #p M062X/def2tzvp geom=check guess=read scf(xqc,tight) integral(grid=u
 ltrafine) scrf(SMD, solvent=1,4-Dioxane) nmr=giao
 ----------------------------------------------------------------------

 ---
 spe
 ---
 Structure from the checkpoint file:  "smiles_00012_conf_0.chk"
 Charge =  0 Multiplicity = 1

                         Standard orientation:
 ---------------------------------------------------------------------
 Center     Atomic      Atomic             Coordinates (Angstroms)
 Number     Number       Type             X           Y           Z
 ---------------------------------------------------------------------
      1          6           0        0.072276    2.292368   -0.000127
      2          6           0        0.802351    0.980277   -0.000122
      3          6           0        2.197377    0.905626   -0.000102
      4          6           0        2.840876   -0.331309   -0.000047
      5          6           0        2.057621   -1.480728   -0.000019
      6          7           0        0.717683   -1.442839   -0.000023
      7          6           0        0.140847   -0.259911   -0.000060
      8         35           0       -1.786351   -0.267993    0.000100
      9          1           0       -0.575102    2.379860    0.878061
     10          1           0        0.776407    3.127778   -0.001184
     11          1           0       -0.576755    2.378952   -0.877161
     12          1           0        2.774813    1.825811   -0.000151
     13          1           0        3.923138   -0.400795   -0.000037
     14          1           0        2.507923   -2.469913   -0.000005
 ---------------------------------------------------------------------

 SCF Done:  E(RM062X) =  -2861.18346809     A.U. after    1 cycles

      1  C    Isotropic =   162.0748   Anisotropy =    29.8523

      2  C    Isotropic =    24.8394   Anisotropy =   205.3759

      3  C    Isotropic =    22.2674   Anisotropy =   212.5016

      4  C    Isotropic =    41.5098   Anisotropy =   203.9753

      5  C    Isotropic =    14.1841   Anisotropy =   193.9276

      6  N    Isotropic =  -138.2230   Anisotropy =   567.9488

      7  C    Isotropic =     1.0012   Anisotropy =    98.7381

      8  Br   Isotropic =  1984.9665   Anisotropy =  1260.3324

      9  H    Isotropic =    29.3049   Anisotropy =     6.3908

     10  H    Isotropic =    29.6010   Anisotropy =     9.1588

     11  H    Isotropic =    29.3041   Anisotropy =     6.3800

     12  H    Isotropic =    23.4318   Anisotropy =     8.3772

     13  H    Isotropic =    23.9209   Anisotropy =     5.9381

     14  H    Isotropic =    22.6999   Anisotropy =     6.5403

 The electronic state is 1-A.
 Alpha  occ. eigenvalues -- -485.37140 -63.35636 -57.17573 -57.17352 -57.17333
 Alpha  occ. eigenvalues --  -14.76469 -10.63438 -10.58579 -10.57493 -10.56738
 Alpha  occ. eigenvalues --  -10.55697 -10.54062  -9.02283  -6.84666  -6.83847
 Alpha  occ. eigenvalues --   -6.83785  -2.88043  -2.87758  -2.87693  -2.86932
 Alpha  occ. eigenvalues --   -2.86930  -1.07585  -0.92897  -0.90840  -0.84304
 Alpha  occ. eigenvalues --   -0.79523  -0.71310  -0.69854  -0.59147  -0.57533
 Alpha  occ. eigenvalues --   -0.52135  -0.51382  -0.48450  -0.47477  -0.46807
 Alpha  occ. eigenvalues --   -0.46534  -0.42085  -0.38188  -0.35044  -0.34566
 Alpha  occ. eigenvalues --   -0.33902  -0.30486
 Alpha virt. eigenvalues --   -0.00579   0.00530   0.04150   0.07943   0.09674
 Alpha virt. eigenvalues --    0.11548   0.13463   0.14056   0.14347   0.17082
 Alpha virt. eigenvalues --    0.17489   0.17641   0.18736   0.21993   0.22092

 Mulliken charges:
               1
     1  C   -0.481547
     2  C    0.025648
     3  C   -0.115471
     4  C   -0.174820
     5  C   -0.053020
     6  N   -0.227333
     7  C    0.130505
     8  Br  -0.112134
     9  H    0.178086
    10  H    0.148627
    11  H    0.178038
    12  H    0.169300
    13  H    0.166507
    14  H    0.167615
 Sum of Mulliken charges =   0.00000

 Dipole moment (field-independent basis, Debye):
    X=              3.2438    Y=              2.5820    Z=             -0.0000  Tot=              4.1460
 Quadrupole moment (field-independent basis, Debye-Ang):
   XX=            -51.0922   YY=            -57.0264   ZZ=            -61.9244
   XY=             -1.0815   XZ=             -0.0001   YZ=             -0.0001

 Normal termination of Gaussian 16 at Tue Sep 17 10:03:33 2024.
