 Gaussian 16, Revision C.02,

 ----------------------------------------------------------------------
 #p B3LYP/6-31G(d,p) EmpiricalDispersion=GD3BJ opt freq scf(xqc,tight)
 integral(grid=ultrafine)
 ----------------------------------------------------------------------

 ----------------------------------
 opt-freq conformers_unique/conf_ae
 ----------------------------------
 Symbolic Z-matrix:
 Charge =  0 Multiplicity = 1

 SCF Done:  E(RB3LYP) =  -3157.29379312     A.U. after   14 cycles
 SCF Done:  E(RB3LYP) =  -3157.29614586     A.U. after   11 cycles
 SCF Done:  E(RB3LYP) =  -3157.29636340     A.U. after   10 cycles
 SCF Done:  E(RB3LYP) =  -3157.29638909     A.U. after   10 cycles
 SCF Done:  E(RB3LYP) =  -3157.29644631     A.U. after    9 cycles
 SCF Done:  E(RB3LYP) =  -3157.29645440     A.U. after    9 cycles
 SCF Done:  E(RB3LYP) =  -3157.29646005     A.U. after    8 cycles
 SCF Done:  E(RB3LYP) =  -3157.29646047     A.U. after    7 cycles
 SCF Done:  E(RB3LYP) =  -3157.29646154     A.U. after    8 cycles
 SCF Done:  E(RB3LYP) =  -3157.29646957     A.U. after   10 cycles
 SCF Done:  E(RB3LYP) =  -3157.29877725     A.U. after   10 cycles
 SCF Done:  E(RB3LYP) =  -3157.29881876     A.U. after   10 cycles
 SCF Done:  E(RB3LYP) =  -3157.29882104     A.U. after    8 cycles
 SCF Done:  E(RB3LYP) =  -3157.29882126     A.U. after    7 cycles
 SCF Done:  E(RB3LYP) =  -3157.29882135     A.U. after    7 cycles
 SCF Done:  E(RB3LYP) =  -3157.29882136     A.U. after    6 cycles
 SCF Done:  E(RB3LYP) =  -3157.29882137     A.U. after    6 cycles
 SCF Done:  E(RB3LYP) =  -3157.29882138     A.U. after    5 cycles
 Optimization completed.
    -- Stationary point found.
 Normal termination of Gaussian 16 at Tue Sep 17 10:09:07 2024.

 ----------------------------------------------------------------------
 #P Geom=AllCheck Guess=TCheck SCRF=Check GenChk RB3LYP/6-31G(d,p) Freq
 ----------------------------------------------------------------------

 Structure from the checkpoint file:  "smiles_00105_conf_4.chk"
 ----------------------------------
 opt-freq conformers_unique/conf_ae
 ----------------------------------
 Charge =  0 Multiplicity = 1

 SCF Done:  E(RB3LYP) =  -3157.29882138     A.U. after    1 cycles

 The electronic state is 1-A.
 Alpha  occ. eigenvalues -- -482.90833 -61.86891 -56.38830 -56.38464 -56.38448
 Alpha  occ. eigenvalues --  -10.23652 -10.20165 -10.20100 -10.19570 -10.19382
 Alpha  occ. eigenvalues --  -10.19246 -10.19196 -10.18506 -10.18477 -10.17686
 Alpha  occ. eigenvalues --  -10.17683 -10.17530 -10.17080 -10.16744 -10.16738
 Alpha  occ. eigenvalues --   -8.57758  -6.53047  -6.51842  -6.51795  -2.64617
 Alpha  occ. eigenvalues --   -2.64280  -2.64245  -2.63284  -2.63284  -0.87479
 Alpha  occ. eigenvalues --   -0.81962  -0.81198  -0.77762  -0.77264  -0.72589
 Alpha  occ. eigenvalues --   -0.70606  -0.68441  -0.68178  -0.67794  -0.62522
 Alpha  occ. eigenvalues --   -0.61294  -0.59828  -0.54798  -0.53832  -0.49834
 Alpha  occ. eigenvalues --   -0.47845  -0.45057  -0.44839  -0.44065  -0.43432
 Alpha  occ. eigenvalues --   -0.43084  -0.42117  -0.41598  -0.40655  -0.40088
 Alpha  occ. eigenvalues --   -0.38881  -0.38588  -0.38291  -0.37293  -0.37026
 Alpha  occ. eigenvalues --   -0.36111  -0.35773  -0.34454  -0.34015  -0.33938
 Alpha  occ. eigenvalues --   -0.33792  -0.33008  -0.32438  -0.31724  -0.31140
 Alpha  occ. eigenvalues --   -0.29502  -0.26989  -0.24083  -0.22783
 Alpha virt. eigenvalues --   -0.00569  -0.00173   0.01405   0.08887   0.09815
 Alpha virt. eigenvalues --    0.10030   0.11858   0.12245   0.13385   0.14776
 Alpha virt. eigenvalues --    0.14921   0.15097   0.15416   0.15501   0.16001

 Mulliken charges:
               1
     1  C   -0.303436
     2  C   -0.130587
     3  C   -0.303325
     4  C    0.165385
     5  C   -0.187103
     6  C    0.136665
     7  C   -0.123373
     8  C   -0.318919
     9  C   -0.302136
    10  C   -0.056449
    11  Br  -0.133877
    12  C    0.148808
    13  C   -0.124767
    14  C   -0.311640
    15  C   -0.311560
    16  C   -0.187862
    17  H    0.107904
    18  H    0.100403
    19  H    0.102954
    20  H    0.088368
    21  H    0.102948
    22  H    0.100374
    23  H    0.108043
    24  H    0.076927
    25  H    0.115019
    26  H    0.101956
    27  H    0.102760
    28  H    0.108062
    29  H    0.100863
    30  H    0.118492
    31  H    0.099406
    32  H    0.089887
    33  H    0.096808
    34  H    0.122091
    35  H    0.101547
    36  H    0.101672
    37  H    0.122405
    38  H    0.096725
    39  H    0.078563
 Sum of Mulliken charges =  -0.00000

 Dipole moment (field-independent basis, Debye):
    X=             -1.6030    Y=              0.1804    Z=             -0.0455  Tot=              1.6138
 Quadrupole moment (field-independent basis, Debye-Ang):
   XX=           -109.3815   YY=           -106.8950   ZZ=           -114.6094
   XY=              0.3597   XZ=              0.1109   YZ=              0.4562

  Exact polarizability:     213.062      -0.635     195.559      -0.466       0.895     124.827
 Approx polarizability:     315.772      -0.445     285.710       2.873       3.069     183.201

                      1                      2                      3
                      A                      A                      A
 Frequencies --     28.8708                43.1170                69.8684
 Red. masses --      2.7913                 3.9822                 2.9733
 Frc consts  --      0.0014                 0.0044                 0.0086
 IR Inten    --      0.0010                 0.0754                 0.2193

                      4                      5                      6
                      A                      A                      A
 Frequencies --     93.8484               116.8615               137.3207
 Red. masses --      2.6623                 2.8944                 3.0691
 Frc consts  --      0.0138                 0.0233                 0.0341
 IR Inten    --      0.0996                 0.0380                 0.0548

                      7                      8                      9
                      A                      A                      A
 Frequencies --    154.9879               168.3054               189.6079
 Red. masses --      2.7374                 2.9496                 5.7654
 Frc consts  --      0.0387                 0.0492                 0.1221
 IR Inten    --      0.0344                 0.2983                 0.2150

                     10                     11                     12
                      A                      A                      A
 Frequencies --    192.7324               216.7922               230.0307
 Red. masses --      2.1372                 1.4178                 2.9412
 Frc consts  --      0.0468                 0.0393                 0.0917
 IR Inten    --      0.0761                 0.4860                 0.7632

                     13                     14                     15
                      A                      A                      A
 Frequencies --    232.7119               239.8997               250.6571
 Red. masses --      1.2214                 1.3045                 1.3263
 Frc consts  --      0.0390                 0.0442                 0.0491
 IR Inten    --      0.0080                 0.0062                 0.1292

                     16                     17                     18
                      A                      A                      A
 Frequencies --    258.4939               265.4197               288.6347
 Red. masses --      1.0636                 1.5981                 1.0726
 Frc consts  --      0.0419                 0.0663                 0.0526
 IR Inten    --      0.0486                 0.0067                 0.0873

                     19                     20                     21
                      A                      A                      A
 Frequencies --    310.9634               334.6516               353.9828
 Red. masses --      2.9780                 2.5833                 3.1087
 Frc consts  --      0.1697                 0.1705                 0.2295
 IR Inten    --      0.0999                 0.0940                 1.6883

                     22                     23                     24
                      A                      A                      A
 Frequencies --    365.8888               382.8690               405.1671
 Red. masses --      3.0180                 3.0628                 4.1380
 Frc consts  --      0.2380                 0.2645                 0.4002
 IR Inten    --      1.2876                 0.1863                 1.4947

                     25                     26                     27
                      A                      A                      A
 Frequencies --    458.4377               477.6762               513.2501
 Red. masses --      2.7326                 2.9373                 3.2140
 Frc consts  --      0.3384                 0.3949                 0.4988
 IR Inten    --      0.4180                 2.6361                 0.3424

                     28                     29                     30
                      A                      A                      A
 Frequencies --    567.0388               599.3229               645.5604
 Red. masses --      3.2793                 3.8714                 3.9870
 Frc consts  --      0.6212                 0.8193                 0.9790
 IR Inten    --      0.6426                 6.4594                 0.6045

                     31                     32                     33
                      A                      A                      A
 Frequencies --    656.9075               665.0780               773.1699
 Red. masses --      2.8028                 3.6444                 3.4741
 Frc consts  --      0.7126                 0.9498                 1.2236
 IR Inten    --      0.4487                 1.6682                 2.6405

                     34                     35                     36
                      A                      A                      A
 Frequencies --    829.9861               841.6681               896.0476
 Red. masses --      3.5284                 3.4301                 2.4507
 Frc consts  --      1.4321                 1.4316                 1.1593
 IR Inten    --      2.0188                 1.3325                 0.0868

                     37                     38                     39
                      A                      A                      A
 Frequencies --    907.5739               912.2608               937.6163
 Red. masses --      1.6015                 1.3814                 1.1787
 Frc consts  --      0.7772                 0.6773                 0.6105
 IR Inten    --     10.2482                 0.4426                 0.6669

                     40                     41                     42
                      A                      A                      A
 Frequencies --    941.7717               946.7413               953.6186
 Red. masses --      1.2914                 1.1927                 1.9874
 Frc consts  --      0.6749                 0.6298                 1.0648
 IR Inten    --      1.4814                 2.1976                12.0895

                     43                     44                     45
                      A                      A                      A
 Frequencies --    964.8610               969.9785               975.2337
 Red. masses --      2.3944                 1.4962                 1.4501
 Frc consts  --      1.3133                 0.8294                 0.8126
 IR Inten    --      2.3945                 0.1001                 0.0505

                     46                     47                     48
                      A                      A                      A
 Frequencies --    979.2748              1033.2826              1097.2663
 Red. masses --      1.5030                 7.7123                 1.5600
 Frc consts  --      0.8492                 4.8515                 1.1066
 IR Inten    --      2.2955                45.8118                10.4847

                     49                     50                     51
                      A                      A                      A
 Frequencies --   1111.2822              1114.9906              1130.1600
 Red. masses --      1.5846                 1.7467                 2.3181
 Frc consts  --      1.1530                 1.2794                 1.7445
 IR Inten    --     10.8845                 9.2076                 0.8003

                     52                     53                     54
                      A                      A                      A
 Frequencies --   1139.8959              1142.3540              1188.0093
 Red. masses --      2.4355                 2.1522                 1.8169
 Frc consts  --      1.8645                 1.6548                 1.5108
 IR Inten    --      1.6185                 9.2532                 2.0538

                     55                     56                     57
                      A                      A                      A
 Frequencies --   1190.9338              1208.4086              1225.6072
 Red. masses --      1.8222                 1.9687                 1.5663
 Frc consts  --      1.5227                 1.6938                 1.3862
 IR Inten    --      4.1931                10.3284                 3.2627

                     58                     59                     60
                      A                      A                      A
 Frequencies --   1267.2119              1297.0559              1336.0524
 Red. masses --      1.6652                 2.5089                 6.0083
 Frc consts  --      1.5755                 2.4869                 6.3190
 IR Inten    --      0.5288                 1.5971                 1.9563

                     61                     62                     63
                      A                      A                      A
 Frequencies --   1341.9713              1352.9269              1357.2965
 Red. masses --      1.4182                 1.3267                 1.7241
 Frc consts  --      1.5047                 1.4307                 1.8714
 IR Inten    --      6.2457                 2.5995                 8.0115

                     64                     65                     66
                      A                      A                      A
 Frequencies --   1361.7996              1365.7792              1404.0845
 Red. masses --      1.2875                 1.5072                 1.4431
 Frc consts  --      1.4068                 1.6565                 1.6762
 IR Inten    --      1.5018                13.0749                 0.8460

                     67                     68                     69
                      A                      A                      A
 Frequencies --   1412.1576              1412.7422              1413.5530
 Red. masses --      1.3286                 1.2355                 1.2218
 Frc consts  --      1.5611                 1.4528                 1.4384
 IR Inten    --      3.2807                 2.8992                 7.6839

                     70                     71                     72
                      A                      A                      A
 Frequencies --   1431.4829              1433.3154              1434.4256
 Red. masses --      1.2360                 1.2265                 1.2262
 Frc consts  --      1.4922                 1.4846                 1.4865
 IR Inten    --      4.7520                 0.7388                 3.0604

                     73                     74                     75
                      A                      A                      A
 Frequencies --   1469.2104              1480.5023              1501.3538
 Red. masses --      2.5382                 2.2506                 1.0437
 Frc consts  --      3.2280                 2.9065                 1.3860
 IR Inten    --     10.6972                28.9719                 0.0426

                     76                     77                     78
                      A                      A                      A
 Frequencies --   1503.6109              1503.8917              1505.1113
 Red. masses --      1.0415                 1.0468                 1.0477
 Frc consts  --      1.3874                 1.3948                 1.3983
 IR Inten    --      0.0781                 2.2725                 2.0411

                     79                     80                     81
                      A                      A                      A
 Frequencies --   1508.0809              1516.9190              1517.2218
 Red. masses --      1.0778                 1.0477                 1.0488
 Frc consts  --      1.4442                 1.4204                 1.4224
 IR Inten    --      1.8347                 7.2916                 6.2884

                     82                     83                     84
                      A                      A                      A
 Frequencies --   1518.2231              1523.1321              1524.1406
 Red. masses --      1.0501                 1.0510                 1.0726
 Frc consts  --      1.4262                 1.4366                 1.4680
 IR Inten    --      0.4113                 8.6275                 4.2814

                     85                     86                     87
                      A                      A                      A
 Frequencies --   1528.8370              1536.4780              1626.9936
 Red. masses --      1.0592                 1.0668                 7.3872
 Frc consts  --      1.4587                 1.4838                11.5213
 IR Inten    --      3.4557                 1.5083                 6.2390

                     88                     89                     90
                      A                      A                      A
 Frequencies --   1645.8664              3034.0565              3035.0199
 Red. masses --      5.2068                 1.0843                 1.0827
 Frc consts  --      8.3102                 5.8811                 5.8762
 IR Inten    --      5.0129                15.0347                18.1039

                     91                     92                     93
                      A                      A                      A
 Frequencies --   3040.3743              3041.5588              3044.2717
 Red. masses --      1.0347                 1.0356                 1.0355
 Frc consts  --      5.6354                 5.6444                 5.6544
 IR Inten    --     22.9318                24.6513                32.0468

                     94                     95                     96
                      A                      A                      A
 Frequencies --   3045.3120              3049.0073              3053.4049
 Red. masses --      1.0375                 1.0384                 1.0403
 Frc consts  --      5.6689                 5.6876                 5.7146
 IR Inten    --     30.1689                34.6937                44.7654

                     97                     98                     99
                      A                      A                      A
 Frequencies --   3063.1625              3109.1075              3109.1959
 Red. masses --      1.0821                 1.1024                 1.1026
 Frc consts  --      5.9819                 6.2788                 6.2803
 IR Inten    --      4.5629                 1.7733                 0.2033

                    100                    101                    102
                      A                      A                      A
 Frequencies --   3113.6433              3115.1748              3116.0490
 Red. masses --      1.1026                 1.1018                 1.1018
 Frc consts  --      6.2978                 6.2996                 6.3034
 IR Inten    --     15.4877                97.4420                45.5755

                    103                    104                    105
                      A                      A                      A
 Frequencies --   3116.2773              3121.3686              3122.7191
 Red. masses --      1.1016                 1.1029                 1.1031
 Frc consts  --      6.3031                 6.3311                 6.3378
 IR Inten    --     48.5643                19.8521                40.1439

                    106                    107                    108
                      A                      A                      A
 Frequencies --   3123.0486              3137.8662              3157.1735
 Red. masses --      1.1025                 1.1010                 1.0983
 Frc consts  --      6.3357                 6.3870                 6.4502
 IR Inten    --     22.5842                18.1584                 2.3409

                    109                    110                    111
                      A                      A                      A
 Frequencies --   3160.3509              3176.5315              3200.9618
 Red. masses --      1.0976                 1.0890                 1.0887
 Frc consts  --      6.4592                 6.4741                 6.5723
 IR Inten    --     18.4331                16.5300                 9.6654

 - Thermochemistry -
 -------------------
 Temperature   298.150 Kelvin.  Pressure   1.00000 Atm.
 Atom     1 has atomic number  6 and mass  12.00000

 Molecular mass:   282.09831 amu.
 Principal axes and moments of inertia in atomic units:
                           1         2         3
     Eigenvalues --  3679.918205766.634258363.92457
           X            0.99999   0.00240  -0.00492
           Y           -0.00240   1.00000  -0.00099
           Z            0.00492   0.00100   0.99999
 This molecule is an asymmetric top.
 Rotational symmetry number  1.
 Warning -- assumption of classical behavior for rotation
           may cause significant error
 Rotational temperatures (Kelvin)      0.02354     0.01502     0.01036
 Rotational constants (GHZ):           0.49043     0.31296     0.21578
 Zero-point vibrational energy     907032.6 (Joules/Mol)
                                  216.78600 (Kcal/Mol)
 Warning -- explicit consideration of  29 degrees of freedom as
           vibrations may cause significant error
 Vibrational temperatures:     41.54    62.04   100.53   135.03   168.14
          (Kelvin)            197.57   222.99   242.15   272.80   277.30
                              311.92   330.96   334.82   345.16   360.64
                              371.92   381.88   415.28   447.41   481.49
                              509.30   526.43   550.86   582.95   659.59
                              687.27   738.45   815.84   862.29   928.82
                              945.14   956.90  1112.42  1194.16  1210.97
                             1289.21  1305.80  1312.54  1349.02  1355.00
                             1362.15  1372.04  1388.22  1395.58  1403.14
                             1408.96  1486.66  1578.72  1598.89  1604.22
                             1626.05  1640.06  1643.59  1709.28  1713.49
                             1738.63  1763.38  1823.24  1866.17  1922.28
                             1930.80  1946.56  1952.85  1959.33  1965.05
                             2020.16  2031.78  2032.62  2033.79  2059.58
                             2062.22  2063.82  2113.87  2130.11  2160.11
                             2163.36  2163.76  2165.52  2169.79  2182.51
                             2182.94  2184.38  2191.45  2192.90  2199.66
                             2210.65  2340.88  2368.03  4365.33  4366.72
                             4374.42  4376.12  4380.03  4381.52  4386.84
                             4393.17  4407.21  4473.31  4473.44  4479.84
                             4482.04  4483.30  4483.63  4490.95  4492.90
                             4493.37  4514.69  4542.47  4547.04  4570.32
                             4605.47

 Zero-point correction=                           0.345470 (Hartree/Particle)
 Thermal correction to Energy=                    0.363986
 Thermal correction to Enthalpy=                  0.364930
 Thermal correction to Gibbs Free Energy=         0.299102
 Sum of electronic and zero-point Energies=          -3156.953351
 Sum of electronic and thermal Energies=             -3156.934835
 Sum of electronic and thermal Enthalpies=           -3156.933891
 Sum of electronic and thermal Free Energies=        -3156.999719

                     E (Thermal)             CV                S
                      KCal/Mol        Cal/Mol-Kelvin    Cal/Mol-Kelvin
 Total                  228.405             69.733            138.547
 Electronic               0.000              0.000              0.000
 Translational            0.889              2.981             42.809
 Rotational               0.889              2.981             33.539
 Vibrational            226.627             63.771             62.199
 Vibration     1          0.593              1.984              5.906
 Vibration     2          0.595              1.980              5.110
 Vibration     3          0.598              1.968              4.157
 Vibration     4          0.603              1.954              3.578
 Vibration     5          0.608              1.935              3.152
 Vibration     6          0.614              1.916              2.841
 Vibration     7          0.620              1.897              2.610
 Vibration     8          0.625              1.881              2.454
 Vibration     9          0.633              1.854              2.232
 Vibration    10          0.635              1.850              2.201
 Vibration    11          0.646              1.815              1.986
 Vibration    12          0.652              1.795              1.879
 Vibration    13          0.653              1.791              1.858
 Vibration    14          0.657              1.779              1.804
 Vibration    15          0.663              1.762              1.726
 Vibration    16          0.667              1.748              1.672
 Vibration    17          0.671              1.736              1.626
 Vibration    18          0.685              1.695              1.482
 Vibration    19          0.700              1.653              1.357
 Vibration    20          0.716              1.606              1.238
 Vibration    21          0.730              1.567              1.148
 Vibration    22          0.739              1.542              1.097
 Vibration    23          0.752              1.507              1.028
 Vibration    24          0.770              1.459              0.944
 Vibration    25          0.816              1.342              0.771
 Vibration    26          0.834              1.300              0.716
 Vibration    27          0.868              1.221              0.626
 Vibration    28          0.923              1.103              0.510
 Vibration    29          0.957              1.033              0.451

 Optimization completed.
    -- Stationary point found.
 Normal termination of Gaussian 16 at Tue Sep 17 10:15:07 2024.
 Gaussian 16:  ES64L-G16RevC.02  7-Dec-2021

 ----------------------------------------------------------------------
 #p M062X/def2tzvp geom=check guess=read scf(xqc,tight) integral(grid=u
 ltrafine) scrf(SMD, solvent=1,4-Dioxane) polar prop=efg volume
 ----------------------------------------------------------------------

 ---
 spe
 ---
 Structure from the checkpoint file:  "smiles_00105_conf_4.chk"
 Charge =  0 Multiplicity = 1

                         Standard orientation:
 ---------------------------------------------------------------------
 Center     Atomic      Atomic             Coordinates (Angstroms)
 Number     Number       Type             X           Y           Z
 ---------------------------------------------------------------------
      1          6           0       -4.232369   -0.440570   -1.336940
      2          6           0       -3.679911    0.144781   -0.027013
      3          6           0       -4.299210   -0.552328    1.195448
      4          6           0       -2.162677    0.092012    0.010964
      5          6           0       -1.409448    1.261786    0.086866
      6          6           0       -0.010774    1.251426    0.124701
      7          6           0        0.774511    2.554913    0.160280
      8          6           0        0.006165    3.729416    0.776582
      9          6           0        1.266899    2.908419   -1.256213
     10          6           0        0.623318   -0.001324    0.080505
     11         35           0        2.556063   -0.015899    0.122744
     12          6           0       -0.083103   -1.213078    0.004602
     13          6           0        0.529892   -2.609349   -0.051844
     14          6           0        1.348469   -2.851862   -1.332671
     15          6           0        1.295467   -2.985829    1.229049
     16          6           0       -1.479796   -1.123989   -0.027532
     17          1           0       -3.810723    0.072109   -2.206425
     18          1           0       -5.322443   -0.344144   -1.374998
     19          1           0       -3.988501   -1.504445   -1.426031
     20          1           0       -3.966980    1.203330    0.012128
     21          1           0       -4.057551   -1.620419    1.203236
     22          1           0       -5.390022   -0.457280    1.184422
     23          1           0       -3.925142   -0.118992    2.127598
     24          1           0       -1.928436    2.213579    0.118778
     25          1           0        1.657377    2.378276    0.783491
     26          1           0        0.677971    4.584687    0.896151
     27          1           0       -0.822134    4.057633    0.139839
     28          1           0       -0.400086    3.475363    1.760204
     29          1           0        0.415705    3.091496   -1.920708
     30          1           0        1.861834    2.093937   -1.675469
     31          1           0        1.885822    3.811501   -1.235487
     32          1           0       -0.327069   -3.291627   -0.104735
     33          1           0        1.692734   -3.890781   -1.365343
     34          1           0        2.221118   -2.200146   -1.385875
     35          1           0        0.734323   -2.668307   -2.219657
     36          1           0        0.650141   -2.879091    2.106404
     37          1           0        2.174187   -2.357505    1.377899
     38          1           0        1.624940   -4.028597    1.173297
     39          1           0       -2.043882   -2.050640   -0.085458
 ---------------------------------------------------------------------

 SCF Done:  E(RM062X) =  -3159.59913161     A.U. after   11 cycles
