 Gaussian 16, Revision C.02,

 ----------------------------------------------------------------------
 #p B3LYP/6-31G(d,p) EmpiricalDispersion=GD3BJ opt freq scf(xqc,tight)
 integral(grid=ultrafine)
 ----------------------------------------------------------------------

 ----------------------------------
 opt-freq conformers_unique/conf_ah
 ----------------------------------
 Symbolic Z-matrix:
 Charge =  0 Multiplicity = 1

 SCF Done:  E(RB3LYP) =  -2996.56409744     A.U. after   14 cycles
 SCF Done:  E(RB3LYP) =  -2996.56608526     A.U. after   12 cycles
 SCF Done:  E(RB3LYP) =  -2996.56760406     A.U. after   14 cycles
 SCF Done:  E(RB3LYP) =  -2996.56766962     A.U. after   14 cycles
 SCF Done:  E(RB3LYP) =  -2996.56853583     A.U. after   12 cycles
 SCF Done:  E(RB3LYP) =  -2996.56882530     A.U. after   11 cycles
 SCF Done:  E(RB3LYP) =  -2996.56893206     A.U. after   11 cycles
 SCF Done:  E(RB3LYP) =  -2996.56894836     A.U. after    9 cycles
 SCF Done:  E(RB3LYP) =  -2996.56895282     A.U. after    8 cycles
 SCF Done:  E(RB3LYP) =  -2996.56895342     A.U. after    8 cycles
 SCF Done:  E(RB3LYP) =  -2996.56895361     A.U. after    7 cycles
 Optimization completed.
    -- Stationary point found.
 Normal termination of Gaussian 16 at Tue Sep 17 09:56:01 2024.

 ----------------------------------------------------------------------
 #P Geom=AllCheck Guess=TCheck SCRF=Check GenChk RB3LYP/6-31G(d,p) Freq
 ----------------------------------------------------------------------

 Structure from the checkpoint file:  "smiles_00017_conf_7.chk"
 ----------------------------------
 opt-freq conformers_unique/conf_ah
 ----------------------------------
 Charge =  0 Multiplicity = 1

 SCF Done:  E(RB3LYP) =  -2996.56895361     A.U. after    1 cycles

                      1                      2                      3
                      A                      A                      A
 Frequencies --     56.1132                68.1276               103.4401
 Red. masses --      2.9004                 3.8217                 3.8478
 Frc consts  --      0.0054                 0.0105                 0.0243
 IR Inten    --      0.0963                 1.1155                 0.4253

                      4                      5                      6
                      A                      A                      A
 Frequencies --    155.4518               191.2927               234.8160
 Red. masses --      5.1062                 5.3054                 1.0294
 Frc consts  --      0.0727                 0.1144                 0.0334
 IR Inten    --      0.4465                 1.0448                 0.1250

                      7                      8                      9
                      A                      A                      A
 Frequencies --    262.4701               275.1335               298.7618
 Red. masses --      1.5813                 2.4559                 3.4837
 Frc consts  --      0.0642                 0.1095                 0.1832
 IR Inten    --      0.2479                 0.9982                 1.4335

                     10                     11                     12
                      A                      A                      A
 Frequencies --    345.1093               400.4347               439.4719
 Red. masses --      3.0359                 3.2258                 2.6359
 Frc consts  --      0.2130                 0.3048                 0.2999
 IR Inten    --      0.1506                 0.7551                 0.2925

                     13                     14                     15
                      A                      A                      A
 Frequencies --    468.3317               496.3542               553.5885
 Red. masses --      3.4405                 5.4254                 3.8426
 Frc consts  --      0.4446                 0.7875                 0.6938
 IR Inten    --      3.4764                11.0908                 1.1395

                     16                     17                     18
                      A                      A                      A
 Frequencies --    615.9329               668.9806               746.3150
 Red. masses --      4.5692                 6.5063                 3.6425
 Frc consts  --      1.0213                 1.7156                 1.1954
 IR Inten    --      2.5145                13.5136                 5.7556

                     19                     20                     21
                      A                      A                      A
 Frequencies --    767.8573               812.7796               874.3700
 Red. masses --      1.3853                 2.4694                 3.1926
 Frc consts  --      0.4812                 0.9611                 1.4381
 IR Inten    --     27.0325                17.0026                 8.2356

                     22                     23                     24
                      A                      A                      A
 Frequencies --    889.8732               939.8117               954.6146
 Red. masses --      1.5676                 1.2443                 1.4585
 Frc consts  --      0.7314                 0.6475                 0.7831
 IR Inten    --      0.8893                 1.0991                 8.5231

                     25                     26                     27
                      A                      A                      A
 Frequencies --    956.7618               964.5622               992.9782
 Red. masses --      1.8404                 1.9239                 1.2943
 Frc consts  --      0.9926                 1.0546                 0.7519
 IR Inten    --     22.8247                39.4397                 0.2369

                     28                     29                     30
                      A                      A                      A
 Frequencies --   1047.6092              1067.8255              1142.2375
 Red. masses --      7.2394                 1.9102                 1.8977
 Frc consts  --      4.6812                 1.2833                 1.4588
 IR Inten    --     32.5795                 7.8987                93.3050

                     31                     32                     33
                      A                      A                      A
 Frequencies --   1143.7577              1170.0586              1185.0069
 Red. masses --      1.5202                 2.0091                 1.0969
 Frc consts  --      1.1717                 1.6206                 0.9075
 IR Inten    --      3.0750                19.0304                 0.8096

                     34                     35                     36
                      A                      A                      A
 Frequencies --   1210.8732              1275.2489              1296.7355
 Red. masses --      1.9397                 1.7816                 2.5482
 Frc consts  --      1.6756                 1.7070                 2.5246
 IR Inten    --     13.6528                31.2240               117.2837

                     37                     38                     39
                      A                      A                      A
 Frequencies --   1335.0982              1376.8269              1394.9266
 Red. masses --      8.4514                 1.3215                 1.1922
 Frc consts  --      8.8757                 1.4760                 1.3668
 IR Inten    --      4.1434                 3.8128                15.7616

                     40                     41                     42
                      A                      A                      A
 Frequencies --   1417.3061              1429.8090              1481.2807
 Red. masses --      1.4000                 1.2703                 2.2219
 Frc consts  --      1.6569                 1.5300                 2.8724
 IR Inten    --     20.9153                23.5094                 9.7533

                     43                     44                     45
                      A                      A                      A
 Frequencies --   1495.3149              1502.8444              1507.7428
 Red. masses --      1.0551                 1.0469                 1.0674
 Frc consts  --      1.3900                 1.3931                 1.4297
 IR Inten    --      1.0899                 0.5384                 7.5394

                     46                     47                     48
                      A                      A                      A
 Frequencies --   1515.4381              1525.7093              1624.4256
 Red. masses --      2.4716                 1.0893                 6.0750
 Frc consts  --      3.3443                 1.4940                 9.4449
 IR Inten    --     99.8169                 8.1559                 1.2408

                     49                     50                     51
                      A                      A                      A
 Frequencies --   1642.9683              3046.7673              3053.7286
 Red. masses --      6.2134                 1.0348                 1.0604
 Frc consts  --      9.8819                 5.6599                 5.8263
 IR Inten    --     17.8559                14.3701                 8.8646

                     52                     53                     54
                      A                      A                      A
 Frequencies --   3056.2373              3121.0999              3126.8940
 Red. masses --      1.0591                 1.1025                 1.1031
 Frc consts  --      5.8286                 6.3278                 6.3544
 IR Inten    --     19.8281                 7.4008                21.4580

                     55                     56                     57
                      A                      A                      A
 Frequencies --   3131.1754              3144.5461              3191.3634
 Red. masses --      1.1024                 1.1029                 1.0859
 Frc consts  --      6.3682                 6.4255                 6.5164
 IR Inten    --     43.2975                17.8333                 1.7702

                     58                     59                     60
                      A                      A                      A
 Frequencies --   3204.7793              3215.5496              3221.4914
 Red. masses --      1.0906                 1.0939                 1.0967
 Frc consts  --      6.5997                 6.6643                 6.7056
 IR Inten    --     12.8709                 8.9278                 6.7699

 - Thermochemistry -
 -------------------
 Temperature   298.150 Kelvin.  Pressure   1.00000 Atm.
 Atom     1 has atomic number  6 and mass  12.00000

 Molecular mass:   213.99933 amu.
 Principal axes and moments of inertia in atomic units:
                           1         2         3
     Eigenvalues --  2055.265672302.936444097.82288
           X            0.99501  -0.09977  -0.00231
           Y            0.09979   0.99497   0.00903
           Z            0.00139  -0.00921   0.99996
 This molecule is an asymmetric top.
 Rotational symmetry number  1.
 Warning -- assumption of classical behavior for rotation
           may cause significant error
 Rotational temperatures (Kelvin)      0.04214     0.03761     0.02114
 Rotational constants (GHZ):           0.87811     0.78367     0.44041
 Zero-point vibrational energy     471546.5 (Joules/Mol)
                                  112.70231 (Kcal/Mol)
 Warning -- explicit consideration of  16 degrees of freedom as
           vibrations may cause significant error
 Vibrational temperatures:     80.73    98.02   148.83   223.66   275.23
          (Kelvin)            337.85   377.64   395.86   429.85   496.54
                              576.14   632.30   673.82   714.14   796.49
                              886.19   962.51  1073.78  1104.78  1169.41
                             1258.02  1280.33  1352.18  1373.48  1376.57
                             1387.79  1428.67  1507.28  1536.36  1643.43
                             1645.61  1683.45  1704.96  1742.18  1834.80
                             1865.71  1920.91  1980.95  2006.99  2039.19
                             2057.18  2131.23  2151.42  2162.26  2169.31
                             2180.38  2195.16  2337.19  2363.86  4383.62
                             4393.63  4397.24  4490.57  4498.90  4505.06
                             4524.30  4591.66  4610.96  4626.46  4635.01

 Zero-point correction=                           0.179603 (Hartree/Particle)
 Thermal correction to Energy=                    0.190570
 Thermal correction to Enthalpy=                  0.191514
 Thermal correction to Gibbs Free Energy=         0.141792
 Sum of electronic and zero-point Energies=          -2996.389351
 Sum of electronic and thermal Energies=             -2996.378384
 Sum of electronic and thermal Enthalpies=           -2996.377440
 Sum of electronic and thermal Free Energies=        -2996.427162

                     E (Thermal)             CV                S
                      KCal/Mol        Cal/Mol-Kelvin    Cal/Mol-Kelvin
 Total                  119.584             40.959            104.649
 Electronic               0.000              0.000              0.000
 Translational            0.889              2.981             41.986
 Rotational               0.889              2.981             31.340
 Vibrational            117.807             34.998             31.324
 Vibration     1          0.596              1.975              4.589
 Vibration     2          0.598              1.969              4.207
 Vibration     3          0.605              1.946              3.388
 Vibration     4          0.620              1.897              2.604
 Vibration     5          0.634              1.852              2.215
 Vibration     6          0.655              1.788              1.842
 Vibration     7          0.670              1.742              1.645
 Vibration     8          0.677              1.719              1.564
 Vibration     9          0.692              1.676              1.424
 Vibration    10          0.723              1.585              1.188
 Vibration    11          0.766              1.469              0.961
 Vibration    12          0.800              1.384              0.828
 Vibration    13          0.826              1.320              0.742
 Vibration    14          0.852              1.258              0.667
 Vibration    15          0.909              1.132              0.537
 Vibration    16          0.976              0.998              0.423

 Optimization completed.
    -- Stationary point found.
 Normal termination of Gaussian 16 at Tue Sep 17 09:58:03 2024.

 ----------------------------------------------------------------------
 #p M062X/def2tzvp geom=check guess=read scf(xqc,tight) integral(grid=u
 ltrafine) scrf(SMD, solvent=1,4-Dioxane) polar prop=efg volume
 ----------------------------------------------------------------------

 ---
 spe
 ---
 Structure from the checkpoint file:  "smiles_00017_conf_7.chk"
 Charge =  0 Multiplicity = 1

 SCF Done:  E(RM062X) =  -2998.97467313     A.U. after   11 cycles

  Exact polarizability:     176.378      12.483     166.846       7.049      -5.734      97.508
 Approx polarizability:     178.758      11.790     182.289      10.425      -9.373     120.085

 Normal termination of Gaussian 16 at Tue Sep 17 10:47:34 2024.
 Gaussian 16:  ES64L-G16RevC.02  7-Dec-2021

 ----------------------------------------------------------------------
 #p M062X/def2tzvp geom=check guess=read scf(xqc,tight) integral(grid=u
 ltrafine) scrf(SMD, solvent=1,4-Dioxane) nmr=giao
 ----------------------------------------------------------------------

 ---
 spe
 ---
 Structure from the checkpoint file:  "smiles_00017_conf_7.chk"
 Charge =  0 Multiplicity = 1

                         Standard orientation:
 ---------------------------------------------------------------------
 Center     Atomic      Atomic             Coordinates (Angstroms)
 Number     Number       Type             X           Y           Z
 ---------------------------------------------------------------------
      1          6           0       -3.205462    0.080205   -0.312886
      2          6           0       -1.983386    0.747643    0.291961
      3          6           0       -2.253010    2.138445    0.851007
      4          8           0       -1.005866    0.836061   -0.783192
      5          6           0        0.305325    0.851216   -0.404713
      6          6           0        1.028837    2.046137   -0.465178
      7          6           0        2.382422    2.077690   -0.135352
      8          6           0        3.031136    0.910019    0.266611
      9          6           0        2.326989   -0.292492    0.326179
     10          6           0        0.977056   -0.316526   -0.012766
     11         35           0        0.031815   -1.974987    0.028558
     12          1           0       -3.590617    0.676001   -1.146133
     13          1           0       -3.996418   -0.023510    0.435804
     14          1           0       -2.935573   -0.910226   -0.686216
     15          1           0       -1.570162    0.105117    1.078170
     16          1           0       -1.334136    2.586463    1.240169
     17          1           0       -2.978842    2.087493    1.668917
     18          1           0       -2.654332    2.791230    0.069614
     19          1           0        0.503168    2.939213   -0.785129
     20          1           0        2.927964    3.014304   -0.189720
     21          1           0        4.084283    0.927233    0.527189
     22          1           0        2.818628   -1.211277    0.624164
 ---------------------------------------------------------------------

 SCF Done:  E(RM062X) =  -2998.97467313     A.U. after    1 cycles

      1  C    Isotropic =   162.1363   Anisotropy =    36.7788

      2  C    Isotropic =   103.4145   Anisotropy =    80.7276

      3  C    Isotropic =   165.0943   Anisotropy =    32.8926

      4  O    Isotropic =   190.3743   Anisotropy =    78.5938

      5  C    Isotropic =     5.1938   Anisotropy =   162.3918

      6  C    Isotropic =    37.5853   Anisotropy =   183.2978

      7  C    Isotropic =    34.6057   Anisotropy =   212.8072

      8  C    Isotropic =    39.0387   Anisotropy =   204.9159

      9  C    Isotropic =    29.2629   Anisotropy =   183.6583

     10  C    Isotropic =    31.4495   Anisotropy =   121.6757

     11  Br   Isotropic =  2168.3827   Anisotropy =  1040.1388

     12  H    Isotropic =    30.5410   Anisotropy =     7.5486

     13  H    Isotropic =    30.7793   Anisotropy =     9.9839

     14  H    Isotropic =    29.7798   Anisotropy =     6.7122

     15  H    Isotropic =    27.6422   Anisotropy =     6.8403

     16  H    Isotropic =    30.3793   Anisotropy =     6.6252

     17  H    Isotropic =    30.9877   Anisotropy =    10.4743

     18  H    Isotropic =    30.7691   Anisotropy =     7.7453

     19  H    Isotropic =    23.9711   Anisotropy =     8.7042

     20  H    Isotropic =    23.7433   Anisotropy =     5.6457

     21  H    Isotropic =    23.9449   Anisotropy =     5.3569

     22  H    Isotropic =    23.5610   Anisotropy =    10.8760

 The electronic state is 1-A.
 Alpha  occ. eigenvalues -- -485.37586 -63.36053 -57.18001 -57.17765 -57.17754
 Alpha  occ. eigenvalues --  -19.64241 -10.61059 -10.60108 -10.59366 -10.55682
 Alpha  occ. eigenvalues --  -10.55121 -10.54944 -10.54902 -10.52355 -10.52092
 Alpha  occ. eigenvalues --   -9.02687  -6.85099  -6.84225  -6.84189  -2.88476
 Alpha  occ. eigenvalues --   -2.88164  -2.88125  -2.87310  -2.87309  -1.17862
 Alpha  occ. eigenvalues --   -0.97487  -0.89972  -0.88914  -0.83933  -0.81227
 Alpha  occ. eigenvalues --   -0.78093  -0.70375  -0.69709  -0.65833  -0.60794
 Alpha  occ. eigenvalues --   -0.56256  -0.55680  -0.52961  -0.51843  -0.50553
 Alpha  occ. eigenvalues --   -0.48396  -0.46738  -0.46109  -0.44976  -0.43668
 Alpha  occ. eigenvalues --   -0.43059  -0.42499  -0.40914  -0.39760  -0.37737
 Alpha  occ. eigenvalues --   -0.35060  -0.34877  -0.30906  -0.29312
 Alpha virt. eigenvalues --    0.00883   0.01692   0.03679   0.07577   0.09743
 Alpha virt. eigenvalues --    0.10337   0.11200   0.12709   0.12886   0.13991
 Alpha virt. eigenvalues --    0.14172   0.15062   0.15280   0.16665   0.17404

 Mulliken charges:
               1
     1  C   -0.398208
     2  C   -0.025431
     3  C   -0.448224
     4  O   -0.309046
     5  C    0.197650
     6  C   -0.178512
     7  C   -0.155622
     8  C   -0.161532
     9  C   -0.170308
    10  C   -0.009770
    11  Br  -0.102413
    12  H    0.152817
    13  H    0.146565
    14  H    0.150097
    15  H    0.153386
    16  H    0.158484
    17  H    0.155036
    18  H    0.153625
    19  H    0.181493
    20  H    0.165812
    21  H    0.165744
    22  H    0.178359
 Sum of Mulliken charges =  -0.00000

 Dipole moment (field-independent basis, Debye):
    X=              0.3903    Y=              1.6717    Z=              1.4150  Tot=              2.2247
 Quadrupole moment (field-independent basis, Debye-Ang):
   XX=            -68.5692   YY=            -75.0180   ZZ=            -82.5486
   XY=              1.2162   XZ=             -0.5917   YZ=             -0.3790

 Normal termination of Gaussian 16 at Tue Sep 17 11:06:24 2024.
