 Gaussian 16, Revision C.02,

 ----------------------------------------------------------------------
 #p B3LYP/6-31G(d,p) EmpiricalDispersion=GD3BJ opt freq scf(xqc,tight)
 integral(grid=ultrafine)
 ----------------------------------------------------------------------

 ----------------------------------
 opt-freq conformers_unique/conf_ah
 ----------------------------------
 Symbolic Z-matrix:
 Charge =  0 Multiplicity = 1

 SCF Done:  E(RB3LYP) =  -3109.92006096     A.U. after   14 cycles
 SCF Done:  E(RB3LYP) =  -3109.92167116     A.U. after   12 cycles
 SCF Done:  E(RB3LYP) =  -3109.92102380     A.U. after   13 cycles
 SCF Done:  E(RB3LYP) =  -3109.92194102     A.U. after   11 cycles
 SCF Done:  E(RB3LYP) =  -3109.92197537     A.U. after   11 cycles
 SCF Done:  E(RB3LYP) =  -3109.92200624     A.U. after   11 cycles
 SCF Done:  E(RB3LYP) =  -3109.92201454     A.U. after   10 cycles
 SCF Done:  E(RB3LYP) =  -3109.92201987     A.U. after   10 cycles
 SCF Done:  E(RB3LYP) =  -3109.92202083     A.U. after    9 cycles
 SCF Done:  E(RB3LYP) =  -3109.92202199     A.U. after    9 cycles
 SCF Done:  E(RB3LYP) =  -3109.92202323     A.U. after   10 cycles
 SCF Done:  E(RB3LYP) =  -3109.92202365     A.U. after    9 cycles
 SCF Done:  E(RB3LYP) =  -3109.92202411     A.U. after    9 cycles
 SCF Done:  E(RB3LYP) =  -3109.92202485     A.U. after   10 cycles
 SCF Done:  E(RB3LYP) =  -3109.92202549     A.U. after   10 cycles
 SCF Done:  E(RB3LYP) =  -3109.92202593     A.U. after    9 cycles
 SCF Done:  E(RB3LYP) =  -3109.92202598     A.U. after    7 cycles
 Optimization completed.
    -- Stationary point found.
 Normal termination of Gaussian 16 at Tue Sep 17 09:58:46 2024.

 ----------------------------------------------------------------------
 #P Geom=AllCheck Guess=TCheck SCRF=Check GenChk RB3LYP/6-31G(d,p) Freq
 ----------------------------------------------------------------------

 Structure from the checkpoint file:  "smiles_00069_conf_7.chk"
 ----------------------------------
 opt-freq conformers_unique/conf_ah
 ----------------------------------
 Charge =  0 Multiplicity = 1

 SCF Done:  E(RB3LYP) =  -3109.92202598     A.U. after    1 cycles

                      1                      2                      3
                      A                      A                      A
 Frequencies --     12.8946                18.8234                41.5110
 Red. masses --      3.8479                 3.7327                 6.4835
 Frc consts  --      0.0004                 0.0008                 0.0066
 IR Inten    --      0.1095                 0.4989                 0.3570

                      4                      5                      6
                      A                      A                      A
 Frequencies --     59.4062               103.7306               157.6289
 Red. masses --      3.4577                 3.7152                 3.5786
 Frc consts  --      0.0072                 0.0236                 0.0524
 IR Inten    --      0.5597                 0.5925                 2.5460

                      7                      8                      9
                      A                      A                      A
 Frequencies --    167.0533               221.2259               265.3779
 Red. masses --      4.3109                 4.0399                 1.3245
 Frc consts  --      0.0709                 0.1165                 0.0550
 IR Inten    --      1.5162                 1.7658                 0.2700

                     10                     11                     12
                      A                      A                      A
 Frequencies --    284.7799               325.4417               340.5634
 Red. masses --      7.7210                 5.3272                 5.1097
 Frc consts  --      0.3689                 0.3324                 0.3492
 IR Inten    --      2.6315                 4.4275                 6.6101

                     13                     14                     15
                      A                      A                      A
 Frequencies --    381.3101               420.9460               434.4382
 Red. masses --      3.1304                 2.9706                 2.2095
 Frc consts  --      0.2682                 0.3101                 0.2457
 IR Inten    --      7.5400                 0.0712                 2.1756

                     16                     17                     18
                      A                      A                      A
 Frequencies --    508.9359               575.6067               648.1069
 Red. masses --      3.2036                 5.8828                 6.2383
 Frc consts  --      0.4889                 1.1484                 1.5439
 IR Inten    --      8.8340                 6.2982                 1.6736

                     19                     20                     21
                      A                      A                      A
 Frequencies --    655.8907               716.3711               771.5540
 Red. masses --      4.9717                 4.3237                 3.8855
 Frc consts  --      1.2601                 1.3073                 1.3628
 IR Inten    --      8.6992                 3.8771                21.1228

                     22                     23                     24
                      A                      A                      A
 Frequencies --    813.6437               826.2031               845.0923
 Red. masses --      1.1228                 1.9760                 1.2503
 Frc consts  --      0.4379                 0.7947                 0.5261
 IR Inten    --      0.1231                20.1225                 0.1442

                     25                     26                     27
                      A                      A                      A
 Frequencies --    860.6965               877.5669               957.5149
 Red. masses --      2.3762                 3.2600                 2.9830
 Frc consts  --      1.0371                 1.4792                 1.6114
 IR Inten    --     16.9241                 1.5580                 2.6271

                     28                     29                     30
                      A                      A                      A
 Frequencies --    968.2207               974.2194               977.0114
 Red. masses --      1.9833                 1.3631                 1.5182
 Frc consts  --      1.0954                 0.7622                 0.8539
 IR Inten    --      5.9504                 0.3064                 0.2322

                     31                     32                     33
                      A                      A                      A
 Frequencies --   1031.0275              1065.8689              1096.0620
 Red. masses --      4.8492                 3.2358                 2.6203
 Frc consts  --      3.0371                 2.1659                 1.8547
 IR Inten    --     40.5886                56.2286                28.8006

                     34                     35                     36
                      A                      A                      A
 Frequencies --   1130.2053              1142.9007              1162.9850
 Red. masses --      1.4713                 2.0733                 1.3518
 Frc consts  --      1.1073                 1.5956                 1.0772
 IR Inten    --     17.3796                16.2518               117.6307

                     37                     38                     39
                      A                      A                      A
 Frequencies --   1186.2637              1210.6108              1222.1926
 Red. masses --      1.5493                 1.1289                 2.6809
 Frc consts  --      1.2845                 0.9748                 2.3594
 IR Inten    --      4.1605                 0.2227                15.4749

                     40                     41                     42
                      A                      A                      A
 Frequencies --   1293.2296              1299.1629              1321.4401
 Red. masses --      2.4813                 1.1872                 1.6806
 Frc consts  --      2.4450                 1.1806                 1.7291
 IR Inten    --    266.1730                39.6906                79.3096

                     43                     44                     45
                      A                      A                      A
 Frequencies --   1333.8551              1355.4743              1404.3920
 Red. masses --      1.6120                 2.9805                 1.3310
 Frc consts  --      1.6898                 3.2265                 1.5467
 IR Inten    --      1.5283                 5.0352                 5.5459

                     46                     47                     48
                      A                      A                      A
 Frequencies --   1439.1497              1448.3901              1489.1937
 Red. masses --      1.4054                 2.6881                 1.1036
 Frc consts  --      1.7150                 3.3225                 1.4420
 IR Inten    --      9.0253                 7.8117                 9.0205

                     49                     50                     51
                      A                      A                      A
 Frequencies --   1500.7386              1512.3512              1532.2159
 Red. masses --      1.0394                 1.0502                 1.1225
 Frc consts  --      1.3793                 1.4152                 1.5526
 IR Inten    --      4.9672                 2.3472                 5.8190

                     52                     53                     54
                      A                      A                      A
 Frequencies --   1533.2278              1630.3624              1651.0424
 Red. masses --      2.1721                 6.8880                 5.7706
 Frc consts  --      3.0085                10.7872                 9.2680
 IR Inten    --     57.5731                 0.2829                 5.7298

                     55                     56                     57
                      A                      A                      A
 Frequencies --   1830.1049              3056.9980              3068.4680
 Red. masses --     11.4324                 1.0354                 1.0584
 Frc consts  --     22.5601                 5.7008                 5.8711
 IR Inten    --    238.6523                14.3199                18.5997

                     58                     59                     60
                      A                      A                      A
 Frequencies --   3080.3680              3109.5132              3132.9941
 Red. masses --      1.0611                 1.1077                 1.1020
 Frc consts  --      5.9324                 6.3105                 6.3731
 IR Inten    --     11.7438                 6.4155                23.7896

                     61                     62                     63
                      A                      A                      A
 Frequencies --   3140.2104              3146.4228              3192.1881
 Red. masses --      1.1051                 1.1045                 1.0896
 Frc consts  --      6.4208                 6.4422                 6.5417
 IR Inten    --     36.8982                 5.4701                 6.5990

                     64                     65                     66
                      A                      A                      A
 Frequencies --   3198.0044              3221.7855              3223.2153
 Red. masses --      1.0891                 1.0939                 1.0944
 Frc consts  --      6.5624                 6.6900                 6.6992
 IR Inten    --      5.9982                 4.7077                 0.3221

 - Thermochemistry -
 -------------------
 Temperature   298.150 Kelvin.  Pressure   1.00000 Atm.
 Atom     1 has atomic number  6 and mass  12.00000

 Molecular mass:   241.99424 amu.
 Principal axes and moments of inertia in atomic units:
                           1         2         3
     Eigenvalues --  1443.136358230.400869025.75845
           X            0.99958  -0.02860   0.00430
           Y            0.02858   0.99958   0.00407
           Z           -0.00442  -0.00395   0.99998
 This molecule is an asymmetric top.
 Rotational symmetry number  1.
 Warning -- assumption of classical behavior for rotation
           may cause significant error
 Rotational temperatures (Kelvin)      0.06002     0.01052     0.00960
 Rotational constants (GHZ):           1.25057     0.21928     0.19995
 Zero-point vibrational energy     500065.2 (Joules/Mol)
                                  119.51846 (Kcal/Mol)
 Warning -- explicit consideration of  17 degrees of freedom as
           vibrations may cause significant error
 Vibrational temperatures:     18.55    27.08    59.73    85.47   149.25
          (Kelvin)            226.79   240.35   318.29   381.82   409.73
                              468.24   489.99   548.62   605.65   625.06
                              732.25   828.17   932.48   943.68  1030.70
                             1110.09  1170.65  1188.72  1215.90  1238.35
                             1262.62  1377.65  1393.05  1401.68  1405.70
                             1483.42  1533.55  1576.99  1626.11  1644.38
                             1673.28  1706.77  1741.80  1758.46  1860.67
                             1869.21  1901.26  1919.12  1950.23  2020.61
                             2070.62  2083.91  2142.62  2159.23  2175.94
                             2204.52  2205.97  2345.73  2375.48  2633.11
                             4398.34  4414.84  4431.96  4473.90  4507.68
                             4518.06  4527.00  4592.85  4601.22  4635.43
                             4637.49

 Zero-point correction=                           0.190465 (Hartree/Particle)
 Thermal correction to Energy=                    0.203494
 Thermal correction to Enthalpy=                  0.204438
 Thermal correction to Gibbs Free Energy=         0.146233
 Sum of electronic and zero-point Energies=          -3109.731561
 Sum of electronic and thermal Energies=             -3109.718532
 Sum of electronic and thermal Enthalpies=           -3109.717588
 Sum of electronic and thermal Free Energies=        -3109.775793

                     E (Thermal)             CV                S
                      KCal/Mol        Cal/Mol-Kelvin    Cal/Mol-Kelvin
 Total                  127.694             46.343            122.503
 Electronic               0.000              0.000              0.000
 Translational            0.889              2.981             42.352
 Rotational               0.889              2.981             33.038
 Vibrational            125.917             40.381             47.113
 Vibration     1          0.593              1.987              7.506
 Vibration     2          0.593              1.986              6.755
 Vibration     3          0.594              1.981              5.186
 Vibration     4          0.597              1.974              4.477
 Vibration     5          0.605              1.946              3.383
 Vibration     6          0.621              1.894              2.578
 Vibration     7          0.624              1.883              2.468
 Vibration     8          0.648              1.809              1.949
 Vibration     9          0.671              1.737              1.626
 Vibration    10          0.683              1.702              1.505
 Vibration    11          0.710              1.625              1.283
 Vibration    12          0.720              1.594              1.210
 Vibration    13          0.751              1.510              1.034
 Vibration    14          0.783              1.425              0.889
 Vibration    15          0.795              1.395              0.844
 Vibration    16          0.864              1.230              0.636
 Vibration    17          0.932              1.084              0.494

 Optimization completed.
    -- Stationary point found.
 Normal termination of Gaussian 16 at Tue Sep 17 10:01:09 2024.

 ----------------------------------------------------------------------
 #p M062X/def2tzvp geom=check guess=read scf(xqc,tight) integral(grid=u
 ltrafine) scrf(SMD, solvent=1,4-Dioxane) polar prop=efg volume
 ----------------------------------------------------------------------

 ---
 spe
 ---
 Structure from the checkpoint file:  "smiles_00069_conf_7.chk"
 Charge =  0 Multiplicity = 1

 SCF Done:  E(RM062X) =  -3112.33746178     A.U. after   12 cycles

  Exact polarizability:     204.988      13.509     155.021     -12.077      15.376     123.145
 Approx polarizability:     199.217      16.559     173.904     -14.095      22.336     149.890

 Normal termination of Gaussian 16 at Tue Sep 17 10:48:39 2024.
 Gaussian 16:  ES64L-G16RevC.02  7-Dec-2021

 ----------------------------------------------------------------------
 #p M062X/def2tzvp geom=check guess=read scf(xqc,tight) integral(grid=u
 ltrafine) scrf(SMD, solvent=1,4-Dioxane) nmr=giao
 ----------------------------------------------------------------------

 ---
 spe
 ---
 Structure from the checkpoint file:  "smiles_00069_conf_7.chk"
 Charge =  0 Multiplicity = 1

                         Standard orientation:
 ---------------------------------------------------------------------
 Center     Atomic      Atomic             Coordinates (Angstroms)
 Number     Number       Type             X           Y           Z
 ---------------------------------------------------------------------
      1          6           0       -4.181899    2.513969   -0.130575
      2          6           0       -4.075332    1.098288   -0.658499
      3          8           0       -3.246694    0.355786    0.266492
      4          6           0       -2.973504   -0.918342   -0.083016
      5          8           0       -3.413497   -1.460504   -1.071959
      6          6           0       -2.006541   -1.549686    0.905985
      7          6           0       -0.597521   -1.054985    0.648443
      8          6           0       -0.157826    0.159883    1.186065
      9          6           0        1.123804    0.637395    0.922788
     10          6           0        1.969880   -0.110260    0.106625
     11         35           0        3.731738    0.534360   -0.257305
     12          6           0        1.555611   -1.318004   -0.447428
     13          6           0        0.269622   -1.781588   -0.173069
     14          1           0       -4.802154    3.115657   -0.801503
     15          1           0       -3.194155    2.978501   -0.064538
     16          1           0       -4.637021    2.526744    0.863687
     17          1           0       -3.614875    1.059224   -1.649950
     18          1           0       -5.050798    0.607375   -0.727953
     19          1           0       -2.319609   -1.293164    1.921917
     20          1           0       -2.067481   -2.631320    0.777130
     21          1           0       -0.828250    0.742002    1.810307
     22          1           0        1.463820    1.575868    1.344554
     23          1           0        2.226169   -1.885661   -1.081591
     24          1           0       -0.062729   -2.720097   -0.606561
 ---------------------------------------------------------------------

 SCF Done:  E(RM062X) =  -3112.33746178     A.U. after    1 cycles

      1  C    Isotropic =   172.0487   Anisotropy =    22.2908

      2  C    Isotropic =   119.7998   Anisotropy =    65.6246

      3  O    Isotropic =    96.6126   Anisotropy =   194.4564

      4  C    Isotropic =    -7.0398   Anisotropy =   116.7849

      5  O    Isotropic =  -157.2178   Anisotropy =   668.5248

      6  C    Isotropic =   138.4486   Anisotropy =    21.4730

      7  C    Isotropic =    26.2207   Anisotropy =   221.5809

      8  C    Isotropic =    30.9830   Anisotropy =   199.5545

      9  C    Isotropic =    31.4599   Anisotropy =   185.0837

     10  C    Isotropic =    25.7576   Anisotropy =   141.8573

     11  Br   Isotropic =  2088.6163   Anisotropy =  1291.7963

     12  C    Isotropic =    30.6576   Anisotropy =   183.5588

     13  C    Isotropic =    32.3397   Anisotropy =   195.0242

     14  H    Isotropic =    30.7841   Anisotropy =    10.5652

     15  H    Isotropic =    30.6508   Anisotropy =     7.6286

     16  H    Isotropic =    30.5471   Anisotropy =     8.0124

     17  H    Isotropic =    28.1628   Anisotropy =     5.2540

     18  H    Isotropic =    27.9252   Anisotropy =     6.5887

     19  H    Isotropic =    28.1071   Anisotropy =     4.1874

     20  H    Isotropic =    28.3920   Anisotropy =     5.2474

     21  H    Isotropic =    23.4537   Anisotropy =     8.2007

     22  H    Isotropic =    23.6647   Anisotropy =    10.5796

     23  H    Isotropic =    23.6496   Anisotropy =    10.3152

     24  H    Isotropic =    23.7212   Anisotropy =     8.0874

 The electronic state is 1-A.
 Alpha  occ. eigenvalues -- -485.37550 -63.36031 -57.17975 -57.17740 -57.17735
 Alpha  occ. eigenvalues --  -19.67239 -19.62020 -10.67661 -10.60438 -10.59314
 Alpha  occ. eigenvalues --  -10.56678 -10.55809 -10.55808 -10.55782 -10.55475
 Alpha  occ. eigenvalues --  -10.55452 -10.53079  -9.02676  -6.85080  -6.84210
 Alpha  occ. eigenvalues --   -6.84191  -2.88456  -2.88141  -2.88118  -2.87308
 Alpha  occ. eigenvalues --   -2.87308  -1.23255  -1.14186  -0.98547  -0.91941
 Alpha  occ. eigenvalues --   -0.88063  -0.85743  -0.85146  -0.79128  -0.72607
 Alpha  occ. eigenvalues --   -0.70732  -0.67346  -0.65432  -0.59493  -0.58344
 Alpha  occ. eigenvalues --   -0.56668  -0.55664  -0.54593  -0.53415  -0.50506
 Alpha  occ. eigenvalues --   -0.50107  -0.47603  -0.47246  -0.46423  -0.45881
 Alpha  occ. eigenvalues --   -0.44825  -0.42663  -0.42341  -0.41468  -0.40650
 Alpha  occ. eigenvalues --   -0.38287  -0.37567  -0.35642  -0.35198  -0.32197
 Alpha  occ. eigenvalues --   -0.29455
 Alpha virt. eigenvalues --    0.00165   0.00698   0.03520   0.05278   0.06820
 Alpha virt. eigenvalues --    0.09168   0.09954   0.10612   0.11475   0.12710
 Alpha virt. eigenvalues --    0.13255   0.13859   0.14509   0.15325   0.15801

 Mulliken charges:
               1
     1  C   -0.430803
     2  C   -0.102740
     3  O   -0.273545
     4  C    0.393630
     5  O   -0.357833
     6  C   -0.416981
     7  C    0.108531
     8  C   -0.197413
     9  C   -0.150072
    10  C    0.031328
    11  Br  -0.116176
    12  C   -0.152504
    13  C   -0.185609
    14  H    0.151093
    15  H    0.151685
    16  H    0.150129
    17  H    0.151039
    18  H    0.149747
    19  H    0.199130
    20  H    0.186142
    21  H    0.174699
    22  H    0.180935
    23  H    0.181723
    24  H    0.173865
 Sum of Mulliken charges =   0.00000

 Dipole moment (field-independent basis, Debye):
    X=             -1.7590    Y=              1.0767    Z=              1.6514  Tot=              2.6420
 Quadrupole moment (field-independent basis, Debye-Ang):
   XX=            -92.2416   YY=            -84.4556   ZZ=            -90.2261
   XY=             -9.3258   XZ=             -5.7074   YZ=             -1.8333

 Normal termination of Gaussian 16 at Tue Sep 17 11:06:11 2024.
