 Gaussian 16, Revision C.02,

 ----------------------------------------------------------------------
 #p B3LYP/6-31G(d,p) EmpiricalDispersion=GD3BJ opt freq scf(xqc,tight)
 integral(grid=ultrafine)
 ----------------------------------------------------------------------

 ----------------------------------
 opt-freq conformers_unique/conf_ad
 ----------------------------------
 Symbolic Z-matrix:
 Charge =  0 Multiplicity = 1

 SCF Done:  E(RB3LYP) =  -3233.08834363     A.U. after   14 cycles
 SCF Done:  E(RB3LYP) =  -3233.08969264     A.U. after   11 cycles
 SCF Done:  E(RB3LYP) =  -3233.08983330     A.U. after   10 cycles
 SCF Done:  E(RB3LYP) =  -3233.08998074     A.U. after   11 cycles
 SCF Done:  E(RB3LYP) =  -3233.09007293     A.U. after   10 cycles
 SCF Done:  E(RB3LYP) =  -3233.09012721     A.U. after    9 cycles
 SCF Done:  E(RB3LYP) =  -3233.09019930     A.U. after   10 cycles
 SCF Done:  E(RB3LYP) =  -3233.09029348     A.U. after   11 cycles
 SCF Done:  E(RB3LYP) =  -3233.09030617     A.U. after   10 cycles
 SCF Done:  E(RB3LYP) =  -3233.09031702     A.U. after    9 cycles
 SCF Done:  E(RB3LYP) =  -3233.09032290     A.U. after    9 cycles
 SCF Done:  E(RB3LYP) =  -3233.09032343     A.U. after    9 cycles
 SCF Done:  E(RB3LYP) =  -3233.09032344     A.U. after    6 cycles
 Optimization completed.
    -- Stationary point found.
 Normal termination of Gaussian 16 at Tue Sep 17 09:48:36 2024.

 ----------------------------------------------------------------------
 #P Geom=AllCheck Guess=TCheck SCRF=Check GenChk RB3LYP/6-31G(d,p) Freq
 ----------------------------------------------------------------------

 Structure from the checkpoint file:  "smiles_00060_conf_3.chk"
 ----------------------------------
 opt-freq conformers_unique/conf_ad
 ----------------------------------
 Charge =  0 Multiplicity = 1

 SCF Done:  E(RB3LYP) =  -3233.09032344     A.U. after    1 cycles

                      1                      2                      3
                      A                      A                      A
 Frequencies --     15.9419                61.7628                96.2957
 Red. masses --      5.2957                 2.9400                 4.1229
 Frc consts  --      0.0008                 0.0066                 0.0225
 IR Inten    --      0.2169                 0.1228                 0.0339

                      4                      5                      6
                      A                      A                      A
 Frequencies --    131.9396               137.2157               173.3625
 Red. masses --      6.3634                 7.5828                 6.2819
 Frc consts  --      0.0653                 0.0841                 0.1112
 IR Inten    --      0.0120                 0.4501                 0.5214

                      7                      8                      9
                      A                      A                      A
 Frequencies --    186.1239               230.9796               263.0761
 Red. masses --      4.8121                 6.8914                 5.9653
 Frc consts  --      0.0982                 0.2166                 0.2432
 IR Inten    --      0.4384                 0.9106                 0.8934

                     10                     11                     12
                      A                      A                      A
 Frequencies --    290.3365               348.3636               361.8642
 Red. masses --     13.5064                 7.8373                 5.6954
 Frc consts  --      0.6708                 0.5604                 0.4394
 IR Inten    --      0.1842                 0.0267                 0.6338

                     13                     14                     15
                      A                      A                      A
 Frequencies --    387.5099               436.0438               503.7552
 Red. masses --      4.8056                 3.5037                 8.6114
 Frc consts  --      0.4252                 0.3925                 1.2876
 IR Inten    --      3.3299                 0.3625                 0.7136

                     16                     17                     18
                      A                      A                      A
 Frequencies --    545.1815               564.5447               611.8793
 Red. masses --      5.0171                 4.6990                 3.6169
 Frc consts  --      0.8786                 0.8824                 0.7978
 IR Inten    --      0.8695                 7.5053                 3.1445

                     19                     20                     21
                      A                      A                      A
 Frequencies --    628.8869               686.6742               693.4066
 Red. masses --      4.1479                 6.4493                 4.2082
 Frc consts  --      0.9665                 1.7917                 1.1921
 IR Inten    --      0.2400                 0.4783                 4.3913

                     22                     23                     24
                      A                      A                      A
 Frequencies --    745.4457               792.6762               793.2540
 Red. masses --      1.5294                 1.2026                 4.6432
 Frc consts  --      0.5007                 0.4452                 1.7215
 IR Inten    --      5.1337                 3.3458                48.9884

                     25                     26                     27
                      A                      A                      A
 Frequencies --    834.5984               865.0899               875.3063
 Red. masses --      1.3267                 7.5933                 1.4124
 Frc consts  --      0.5445                 3.3481                 0.6376
 IR Inten    --     29.0675                34.7793                11.9434

                     28                     29                     30
                      A                      A                      A
 Frequencies --    900.0584               928.5895               962.6625
 Red. masses --      2.3582                 2.8200                 3.8073
 Frc consts  --      1.1256                 1.4327                 2.0788
 IR Inten    --      8.8311                 0.2984                40.2614

                     31                     32                     33
                      A                      A                      A
 Frequencies --    965.3741              1014.2201              1053.4328
 Red. masses --      1.2199                 3.4085                 2.1694
 Frc consts  --      0.6698                 2.0658                 1.4184
 IR Inten    --      4.1320                30.5132                 6.2596

                     34                     35                     36
                      A                      A                      A
 Frequencies --   1114.5337              1147.0722              1182.8592
 Red. masses --      2.7504                 2.2922                 3.3387
 Frc consts  --      2.0130                 1.7770                 2.7523
 IR Inten    --     63.0829                16.3944               190.0557

                     37                     38                     39
                      A                      A                      A
 Frequencies --   1210.0856              1225.0600              1248.9886
 Red. masses --      1.3260                 1.4006                 1.3730
 Frc consts  --      1.1440                 1.2384                 1.2619
 IR Inten    --      0.1622                22.1194                47.9244

                     40                     41                     42
                      A                      A                      A
 Frequencies --   1250.6870              1266.2586              1268.7741
 Red. masses --      1.1684                 3.0986                 1.3196
 Frc consts  --      1.0768                 2.9272                 1.2516
 IR Inten    --      0.7630                72.8801                 0.2148

                     43                     44                     45
                      A                      A                      A
 Frequencies --   1286.8201              1314.1925              1332.3941
 Red. masses --      1.6312                 1.3670                 9.6135
 Frc consts  --      1.5915                 1.3910                10.0553
 IR Inten    --     67.0508                 0.7033                 1.5833

                     46                     47                     48
                      A                      A                      A
 Frequencies --   1378.4002              1433.6260              1477.8460
 Red. masses --      3.8487                 1.5900                 3.8724
 Frc consts  --      4.3084                 1.9254                 4.9830
 IR Inten    --    131.8349                 2.1265                25.7630

                     49                     50                     51
                      A                      A                      A
 Frequencies --   1503.5940              1503.9230              1532.5537
 Red. masses --      1.0916                 1.0997                 1.1970
 Frc consts  --      1.4540                 1.4654                 1.6565
 IR Inten    --      3.2903                 4.1230                65.2355

                     52                     53                     54
                      A                      A                      A
 Frequencies --   1541.7780              1639.8557              1669.3563
 Red. masses --      4.1403                 8.3520                 8.8488
 Frc consts  --      5.7986                13.2328                14.5289
 IR Inten    --    329.6869               122.7224               108.4161

                     55                     56                     57
                      A                      A                      A
 Frequencies --   3084.0810              3094.3007              3095.0906
 Red. masses --      1.0590                 1.0607                 1.0795
 Frc consts  --      5.9346                 5.9837                 6.0929
 IR Inten    --     33.8635                52.0556                 7.9139

                     58                     59                     60
                      A                      A                      A
 Frequencies --   3100.1253              3131.4178              3151.3053
 Red. masses --      1.0724                 1.1093                 1.1054
 Frc consts  --      6.0727                 6.4088                 6.4678
 IR Inten    --     15.3086                 5.0276                 2.4804

                     61                     62                     63
                      A                      A                      A
 Frequencies --   3159.1012              3240.6012              3282.1591
 Red. masses --      1.1045                 1.0919                 1.0907
 Frc consts  --      6.4943                 6.7560                 6.9227
 IR Inten    --     63.7163                 1.2535                 0.0935

 - Thermochemistry -
 -------------------
 Temperature   298.150 Kelvin.  Pressure   1.00000 Atm.
 Atom     1 has atomic number  9 and mass  18.99840

 Molecular mass:   261.98048 amu.
 Principal axes and moments of inertia in atomic units:
                           1         2         3
     Eigenvalues --  1792.326367259.782548759.22001
           X            0.99985  -0.01741   0.00001
           Y            0.01741   0.99985  -0.00000
           Z           -0.00001   0.00000   1.00000
 This molecule is an asymmetric top.
 Rotational symmetry number  1.
 Warning -- assumption of classical behavior for rotation
           may cause significant error
 Rotational temperatures (Kelvin)      0.04832     0.01193     0.00989
 Rotational constants (GHZ):           1.00693     0.24859     0.20604
 Zero-point vibrational energy     448316.7 (Joules/Mol)
                                  107.15025 (Kcal/Mol)
 Warning -- explicit consideration of  18 degrees of freedom as
           vibrations may cause significant error
 Vibrational temperatures:     22.94    88.86   138.55   189.83   197.42
          (Kelvin)            249.43   267.79   332.33   378.51   417.73
                              501.22   520.64   557.54   627.37   724.79
                              784.39   812.25   880.36   904.83   987.97
                              997.66  1072.53  1140.48  1141.32  1200.80
                             1244.67  1259.37  1294.98  1336.03  1385.06
                             1388.96  1459.24  1515.65  1603.57  1650.38
                             1701.87  1741.04  1762.59  1797.02  1799.46
                             1821.86  1825.48  1851.45  1890.83  1917.02
                             1983.21  2062.67  2126.29  2163.34  2163.81
                             2205.00  2218.27  2359.39  2401.83  4437.30
                             4452.01  4453.15  4460.39  4505.41  4534.03
                             4545.24  4662.50  4722.29

 Zero-point correction=                           0.170755 (Hartree/Particle)
 Thermal correction to Energy=                    0.183346
 Thermal correction to Enthalpy=                  0.184290
 Thermal correction to Gibbs Free Energy=         0.129270
 Sum of electronic and zero-point Energies=          -3232.919569
 Sum of electronic and thermal Energies=             -3232.906978
 Sum of electronic and thermal Enthalpies=           -3232.906034
 Sum of electronic and thermal Free Energies=        -3232.961053

                     E (Thermal)             CV                S
                      KCal/Mol        Cal/Mol-Kelvin    Cal/Mol-Kelvin
 Total                  115.051             46.971            115.799
 Electronic               0.000              0.000              0.000
 Translational            0.889              2.981             42.589
 Rotational               0.889              2.981             33.099
 Vibrational            113.274             41.010             40.110
 Vibration     1          0.593              1.986              7.085
 Vibration     2          0.597              1.973              4.400
 Vibration     3          0.603              1.952              3.528
 Vibration     4          0.612              1.921              2.918
 Vibration     5          0.614              1.916              2.842
 Vibration     6          0.627              1.875              2.399
 Vibration     7          0.632              1.859              2.266
 Vibration     8          0.653              1.794              1.871
 Vibration     9          0.670              1.741              1.641
 Vibration    10          0.686              1.692              1.472
 Vibration    11          0.726              1.579              1.174
 Vibration    12          0.736              1.551              1.114
 Vibration    13          0.756              1.497              1.010
 Vibration    14          0.796              1.392              0.839
 Vibration    15          0.859              1.242              0.649
 Vibration    16          0.900              1.150              0.554
 Vibration    17          0.920              1.108              0.515
 Vibration    18          0.971              1.007              0.430

 Optimization completed.
    -- Stationary point found.
 Normal termination of Gaussian 16 at Tue Sep 17 09:50:56 2024.

 ----------------------------------------------------------------------
 #p M062X/def2tzvp geom=check guess=read scf(xqc,tight) integral(grid=u
 ltrafine) scrf(SMD, solvent=1,4-Dioxane) polar prop=efg volume
 ----------------------------------------------------------------------

 ---
 spe
 ---
 Structure from the checkpoint file:  "smiles_00060_conf_3.chk"
 Charge =  0 Multiplicity = 1

 SCF Done:  E(RM062X) =  -3235.53905604     A.U. after   12 cycles

  Exact polarizability:     215.646       5.415     151.688      -0.007       0.001     105.077
 Approx polarizability:     206.246       3.067     182.393      -0.010       0.003     123.457

 Normal termination of Gaussian 16 at Tue Sep 17 11:04:26 2024.
 Gaussian 16:  ES64L-G16RevC.02  7-Dec-2021

 ----------------------------------------------------------------------
 #p M062X/def2tzvp geom=check guess=read scf(xqc,tight) integral(grid=u
 ltrafine) scrf(SMD, solvent=1,4-Dioxane) nmr=giao
 ----------------------------------------------------------------------

 ---
 spe
 ---
 Structure from the checkpoint file:  "smiles_00060_conf_3.chk"
 Charge =  0 Multiplicity = 1

                         Standard orientation:
 ---------------------------------------------------------------------
 Center     Atomic      Atomic             Coordinates (Angstroms)
 Number     Number       Type             X           Y           Z
 ---------------------------------------------------------------------
      1          9           0        0.136741    3.010958   -0.000147
      2          6           0       -0.036301    1.678304   -0.000188
      3          6           0        1.079259    0.849724   -0.000410
      4          6           0        0.891969   -0.539764   -0.000445
      5          8           0        1.866093   -1.487993   -0.000715
      6          6           0        3.259619   -1.200367   -0.000092
      7          6           0        3.926551   -0.336988    1.098355
      8          6           0        4.904521    0.174522    0.000709
      9          6           0        3.927417   -0.336746   -1.097820
     10          6           0       -0.411537   -1.059726   -0.000279
     11          6           0       -1.505608   -0.204845   -0.000082
     12         35           0       -3.270020   -0.902808    0.000145
     13          6           0       -1.332216    1.177330   -0.000024
     14          9           0       -2.373841    2.020476    0.000185
     15          1           0        2.048928    1.320861   -0.000582
     16          1           0        3.705587   -2.197630   -0.000021
     17          1           0        3.277152    0.451936    1.479352
     18          1           0        4.347684   -0.876618    1.949653
     19          1           0        5.849244   -0.374526    0.001017
     20          1           0        5.125983    1.243667    0.000921
     21          1           0        3.278299    0.452252   -1.479146
     22          1           0        4.349226   -0.876169   -1.948914
     23          1           0       -0.548295   -2.133104   -0.000306
 ---------------------------------------------------------------------

 SCF Done:  E(RM062X) =  -3235.53905604     A.U. after    1 cycles

      1  F    Isotropic =   313.2994   Anisotropy =   138.2408

      2  C    Isotropic =    14.0568   Anisotropy =   112.6428

      3  C    Isotropic =    64.5158   Anisotropy =   143.8639

      4  C    Isotropic =    10.8917   Anisotropy =   153.4540

      5  O    Isotropic =   175.3843   Anisotropy =   120.6314

      6  C    Isotropic =   109.5837   Anisotropy =    76.1055

      7  C    Isotropic =   159.6769   Anisotropy =    32.0570

      8  C    Isotropic =   176.6579   Anisotropy =    16.9082

      9  C    Isotropic =   159.6663   Anisotropy =    32.0717

     10  C    Isotropic =    47.0209   Anisotropy =   138.8324

     11  C    Isotropic =    37.8126   Anisotropy =   133.9999

     12  Br   Isotropic =  2158.9633   Anisotropy =  1068.7921

     13  C    Isotropic =    23.7958   Anisotropy =   103.7614

     14  F    Isotropic =   324.9537   Anisotropy =   131.3400

     15  H    Isotropic =    24.1500   Anisotropy =    10.1932

     16  H    Isotropic =    26.9114   Anisotropy =     5.0488

     17  H    Isotropic =    28.6977   Anisotropy =     4.1548

     18  H    Isotropic =    29.7618   Anisotropy =     9.8500

     19  H    Isotropic =    30.2609   Anisotropy =     9.8646

     20  H    Isotropic =    29.9853   Anisotropy =     9.9728

     21  H    Isotropic =    28.6982   Anisotropy =     4.1511

     22  H    Isotropic =    29.7612   Anisotropy =     9.8491

     23  H    Isotropic =    24.4043   Anisotropy =    11.1621

 The electronic state is 1-A.
 Alpha  occ. eigenvalues -- -485.38663 -63.37129 -57.19086 -57.18835 -57.18824
 Alpha  occ. eigenvalues --  -25.27531 -25.27401 -19.66683 -10.65124 -10.64478
 Alpha  occ. eigenvalues --  -10.63036 -10.62015 -10.60500 -10.56493 -10.56160
 Alpha  occ. eigenvalues --  -10.54296 -10.54028 -10.54025  -9.03772  -6.86220
 Alpha  occ. eigenvalues --   -6.85289  -6.85250  -2.89597  -2.89264  -2.89224
 Alpha  occ. eigenvalues --   -2.88356  -2.88356  -1.39636  -1.38257  -1.20004
 Alpha  occ. eigenvalues --   -0.99688  -0.95403  -0.91564  -0.86833  -0.83768
 Alpha  occ. eigenvalues --   -0.77480  -0.76201  -0.73643  -0.70675  -0.66673
 Alpha  occ. eigenvalues --   -0.65075  -0.63372  -0.61517  -0.60102  -0.58553
 Alpha  occ. eigenvalues --   -0.56945  -0.56371  -0.54960  -0.52873  -0.52721
 Alpha  occ. eigenvalues --   -0.51237  -0.49387  -0.47672  -0.46727  -0.46320
 Alpha  occ. eigenvalues --   -0.45253  -0.43545  -0.40704  -0.39495  -0.38687
 Alpha  occ. eigenvalues --   -0.36489  -0.36450  -0.36043  -0.31196  -0.28737
 Alpha virt. eigenvalues --   -0.00072   0.02197   0.02230   0.06531   0.07258
 Alpha virt. eigenvalues --    0.08904   0.10214   0.10798   0.11698   0.13661
 Alpha virt. eigenvalues --    0.14617   0.15398   0.15643   0.16289   0.16841

 Mulliken charges:
               1
     1  F   -0.195140
     2  C    0.193585
     3  C   -0.322118
     4  C    0.354364
     5  O   -0.283722
     6  C   -0.008502
     7  C   -0.307820
     8  C   -0.254573
     9  C   -0.307756
    10  C   -0.272627
    11  C   -0.008963
    12  Br  -0.063289
    13  C    0.183444
    14  F   -0.188441
    15  H    0.195516
    16  H    0.155178
    17  H    0.171959
    18  H    0.147857
    19  H    0.158076
    20  H    0.140010
    21  H    0.171914
    22  H    0.147855
    23  H    0.193191
 Sum of Mulliken charges =  -0.00000

 Dipole moment (field-independent basis, Debye):
    X=              4.6213    Y=             -1.4358    Z=              0.0005  Tot=              4.8392
 Quadrupole moment (field-independent basis, Debye-Ang):
   XX=            -83.0838   YY=            -97.4635   ZZ=            -93.7357
   XY=              1.8706   XZ=              0.0016   YZ=             -0.0019

 Normal termination of Gaussian 16 at Tue Sep 17 11:31:31 2024.
