 Gaussian 16, Revision C.02,

 ----------------------------------------------------------------------
 #p B3LYP/6-31G(d,p) EmpiricalDispersion=GD3BJ opt freq scf(xqc,tight)
 integral(grid=ultrafine)
 ----------------------------------------------------------------------

 ----------------------------------
 opt-freq conformers_unique/conf_ad
 ----------------------------------
 Symbolic Z-matrix:
 Charge =  0 Multiplicity = 1

 SCF Done:  E(RB3LYP) =  -3275.18892736     A.U. after   15 cycles
 SCF Done:  E(RB3LYP) =  -3275.19057217     A.U. after   12 cycles
 SCF Done:  E(RB3LYP) =  -3275.19070906     A.U. after   12 cycles
 SCF Done:  E(RB3LYP) =  -3275.19059689     A.U. after   13 cycles
 SCF Done:  E(RB3LYP) =  -3275.19082890     A.U. after   11 cycles
 SCF Done:  E(RB3LYP) =  -3275.19085011     A.U. after   11 cycles
 SCF Done:  E(RB3LYP) =  -3275.19083523     A.U. after   12 cycles
 SCF Done:  E(RB3LYP) =  -3275.19085510     A.U. after   10 cycles
 SCF Done:  E(RB3LYP) =  -3275.19085992     A.U. after   10 cycles
 SCF Done:  E(RB3LYP) =  -3275.19086044     A.U. after    7 cycles
 SCF Done:  E(RB3LYP) =  -3275.19194989     A.U. after   12 cycles
 SCF Done:  E(RB3LYP) =  -3275.19197233     A.U. after   10 cycles
 SCF Done:  E(RB3LYP) =  -3275.19198550     A.U. after   10 cycles
 SCF Done:  E(RB3LYP) =  -3275.19199104     A.U. after    9 cycles
 SCF Done:  E(RB3LYP) =  -3275.19199592     A.U. after    9 cycles
 SCF Done:  E(RB3LYP) =  -3275.19199639     A.U. after    8 cycles
 SCF Done:  E(RB3LYP) =  -3275.19199648     A.U. after    8 cycles
 Optimization completed.
    -- Stationary point found.
 Normal termination of Gaussian 16 at Tue Sep 17 10:01:34 2024.

 ----------------------------------------------------------------------
 #P Geom=AllCheck Guess=TCheck SCRF=Check GenChk RB3LYP/6-31G(d,p) Freq
 ----------------------------------------------------------------------

 Structure from the checkpoint file:  "smiles_00085_conf_3.chk"
 ----------------------------------
 opt-freq conformers_unique/conf_ad
 ----------------------------------
 Charge =  0 Multiplicity = 1

 SCF Done:  E(RB3LYP) =  -3275.19199648     A.U. after    1 cycles

                      1                      2                      3
                      A                      A                      A
 Frequencies --     30.4429                39.0950                75.6462
 Red. masses --      6.2735                 6.3048                 4.5241
 Frc consts  --      0.0034                 0.0057                 0.0153
 IR Inten    --      2.5544                 1.5289                 0.1851

                      4                      5                      6
                      A                      A                      A
 Frequencies --     90.0268               109.4578               114.0242
 Red. masses --      4.9221                 8.0253                 1.9978
 Frc consts  --      0.0235                 0.0567                 0.0153
 IR Inten    --      1.2519                 0.3503                 0.0229

                      7                      8                      9
                      A                      A                      A
 Frequencies --    127.2965               133.1206               170.1885
 Red. masses --      1.1317                 1.4316                 5.1150
 Frc consts  --      0.0108                 0.0149                 0.0873
 IR Inten    --      0.4502                 0.0488                 9.3019

                     10                     11                     12
                      A                      A                      A
 Frequencies --    204.5630               220.1820               223.2422
 Red. masses --      4.0486                 6.0153                 6.7435
 Frc consts  --      0.0998                 0.1718                 0.1980
 IR Inten    --      0.0480                 2.8998                 0.6118

                     13                     14                     15
                      A                      A                      A
 Frequencies --    263.3334               291.9402               345.7895
 Red. masses --      9.2871                 5.5798                 5.0809
 Frc consts  --      0.3794                 0.2802                 0.3579
 IR Inten    --      2.2523                11.5814                 9.4893

                     16                     17                     18
                      A                      A                      A
 Frequencies --    352.2763               393.0757               474.9282
 Red. masses --      6.6025                 6.4634                 9.2471
 Frc consts  --      0.4828                 0.5884                 1.2289
 IR Inten    --     16.0365                 0.8386                 8.0064

                     19                     20                     21
                      A                      A                      A
 Frequencies --    506.4112               540.2256               568.4381
 Red. masses --      6.1547                 6.7255                 6.7293
 Frc consts  --      0.9300                 1.1564                 1.2811
 IR Inten    --      0.0923                18.4087                 0.1135

                     22                     23                     24
                      A                      A                      A
 Frequencies --    705.3769               744.0057               748.2899
 Red. masses --      6.2390                 8.9982                 6.8374
 Frc consts  --      1.8290                 2.9347                 2.2557
 IR Inten    --     10.0652                92.0590                23.7174

                     25                     26                     27
                      A                      A                      A
 Frequencies --    787.4594               795.6635               843.5025
 Red. masses --      4.3154                 7.4162                 6.0634
 Frc consts  --      1.5766                 2.7662                 2.5418
 IR Inten    --     12.8181                 0.2279                 8.0562

                     28                     29                     30
                      A                      A                      A
 Frequencies --    901.0203               934.7093               960.7875
 Red. masses --      6.1788                 1.5698                 1.4153
 Frc consts  --      2.9554                 0.8080                 0.7698
 IR Inten    --      6.0427                11.8165                 1.7031

                     31                     32                     33
                      A                      A                      A
 Frequencies --   1008.6289              1013.3694              1044.0702
 Red. masses --      7.5234                 6.9256                 8.3911
 Frc consts  --      4.5095                 4.1903                 5.3893
 IR Inten    --     26.0161                 4.4315                45.2649

                     34                     35                     36
                      A                      A                      A
 Frequencies --   1122.5857              1179.3511              1180.4365
 Red. masses --      1.4595                 1.2777                 1.2762
 Frc consts  --      1.0837                 1.0471                 1.0478
 IR Inten    --     12.0753                 0.8346                 0.8476

                     37                     38                     39
                      A                      A                      A
 Frequencies --   1182.9432              1184.4414              1218.1219
 Red. masses --      1.7187                 2.8991                 1.5282
 Frc consts  --      1.4170                 2.3963                 1.3360
 IR Inten    --     57.1922                31.0596                21.3158

                     40                     41                     42
                      A                      A                      A
 Frequencies --   1227.7708              1277.2106              1324.6380
 Red. masses --      2.3411                 3.9498                10.6615
 Frc consts  --      2.0792                 3.7962                11.0220
 IR Inten    --     73.1945               664.2666                 2.0303

                     43                     44                     45
                      A                      A                      A
 Frequencies --   1343.3584              1436.5428              1466.7119
 Red. masses --      4.9675                 3.3673                 2.9726
 Frc consts  --      5.2817                 4.0942                 3.7677
 IR Inten    --    364.9870                47.0043                 7.9409

                     46                     47                     48
                      A                      A                      A
 Frequencies --   1482.5866              1486.1910              1495.2368
 Red. masses --      1.2913                 1.4364                 1.0461
 Frc consts  --      1.6723                 1.8693                 1.3780
 IR Inten    --     21.4754                26.7976                 6.8165

                     49                     50                     51
                      A                      A                      A
 Frequencies --   1496.8031              1507.2518              1509.8345
 Red. masses --      1.0464                 1.0576                 1.0512
 Frc consts  --      1.3812                 1.4157                 1.4118
 IR Inten    --      6.7864                 5.1057                 8.5080

                     52                     53                     54
                      A                      A                      A
 Frequencies --   1606.0854              1616.7149              1801.4668
 Red. masses --      6.2838                 9.7588                11.6631
 Frc consts  --      9.5501                15.0285                22.3006
 IR Inten    --    118.2463                10.8750               168.9198

                     55                     56                     57
                      A                      A                      A
 Frequencies --   1838.6107              3066.5992              3067.7931
 Red. masses --     12.0458                 1.0302                 1.0297
 Frc consts  --     23.9919                 5.7079                 5.7096
 IR Inten    --    192.6414                35.9198                32.1803

                     58                     59                     60
                      A                      A                      A
 Frequencies --   3143.6369              3146.2676              3179.9608
 Red. masses --      1.1069                 1.1071                 1.1073
 Frc consts  --      6.4452                 6.4568                 6.5973
 IR Inten    --     19.0002                17.8949                13.8926

                     61                     62                     63
                      A                      A                      A
 Frequencies --   3183.9063              3249.9303              3259.1505
 Red. masses --      1.1068                 1.0929                 1.0926
 Frc consts  --      6.6107                 6.8009                 6.8380
 IR Inten    --     12.9308                 5.3463                 2.3608

 - Thermochemistry -
 -------------------
 Temperature   298.150 Kelvin.  Pressure   1.00000 Atm.
 Atom     1 has atomic number  6 and mass  12.00000

 Molecular mass:   272.96367 amu.
 Principal axes and moments of inertia in atomic units:
                           1         2         3
     Eigenvalues --  4624.905625404.67694**********
           X            0.91473  -0.40407   0.00000
           Y            0.40407   0.91473   0.00000
           Z           -0.00000  -0.00000   1.00000
 This molecule is an asymmetric top.
 Rotational symmetry number  1.
 Warning -- assumption of classical behavior for rotation
           may cause significant error
 Rotational temperatures (Kelvin)      0.01873     0.01603     0.00866
 Rotational constants (GHZ):           0.39022     0.33392     0.18035
 Zero-point vibrational energy     430911.2 (Joules/Mol)
                                  102.99025 (Kcal/Mol)
 Warning -- explicit consideration of  21 degrees of freedom as
           vibrations may cause significant error
 Vibrational temperatures:     43.80    56.25   108.84   129.53   157.49
          (Kelvin)            164.06   183.15   191.53   244.86   294.32
                              316.79   321.20   378.88   420.04   497.51
                              506.85   565.55   683.32   728.61   777.26
                              817.86  1014.88  1070.46  1076.62  1132.98
                             1144.78  1213.61  1296.37  1344.84  1382.36
                             1451.19  1458.01  1502.18  1615.15  1696.82
                             1698.38  1701.99  1704.15  1752.61  1766.49
                             1837.62  1905.86  1932.79  2066.86  2110.27
                             2133.11  2138.30  2151.31  2153.57  2168.60
                             2172.32  2310.80  2326.09  2591.91  2645.35
                             4412.15  4413.87  4522.99  4526.78  4575.25
                             4580.93  4675.92  4689.19

 Zero-point correction=                           0.164125 (Hartree/Particle)
 Thermal correction to Energy=                    0.178987
 Thermal correction to Enthalpy=                  0.179932
 Thermal correction to Gibbs Free Energy=         0.119325
 Sum of electronic and zero-point Energies=          -3275.027871
 Sum of electronic and thermal Energies=             -3275.013009
 Sum of electronic and thermal Enthalpies=           -3275.012065
 Sum of electronic and thermal Free Energies=        -3275.072672

                     E (Thermal)             CV                S
                      KCal/Mol        Cal/Mol-Kelvin    Cal/Mol-Kelvin
 Total                  112.316             51.143            127.558
 Electronic               0.000              0.000              0.000
 Translational            0.889              2.981             42.711
 Rotational               0.889              2.981             33.880
 Vibrational            110.539             45.182             50.967
 Vibration     1          0.594              1.984              5.800
 Vibration     2          0.594              1.981              5.304
 Vibration     3          0.599              1.965              4.001
 Vibration     4          0.602              1.956              3.659
 Vibration     5          0.606              1.942              3.279
 Vibration     6          0.607              1.938              3.199
 Vibration     7          0.611              1.926              2.986
 Vibration     8          0.613              1.920              2.900
 Vibration     9          0.625              1.879              2.433
 Vibration    10          0.640              1.833              2.092
 Vibration    11          0.647              1.810              1.958
 Vibration    12          0.649              1.806              1.933
 Vibration    13          0.670              1.740              1.640
 Vibration    14          0.687              1.689              1.463
 Vibration    15          0.724              1.584              1.185
 Vibration    16          0.729              1.571              1.156
 Vibration    17          0.760              1.485              0.988
 Vibration    18          0.832              1.306              0.724
 Vibration    19          0.862              1.236              0.642
 Vibration    20          0.895              1.161              0.565
 Vibration    21          0.924              1.100              0.507

 Optimization completed.
    -- Stationary point found.
 Normal termination of Gaussian 16 at Tue Sep 17 10:03:06 2024.

 ----------------------------------------------------------------------
 #p M062X/def2tzvp geom=check guess=read scf(xqc,tight) integral(grid=u
 ltrafine) scrf(SMD, solvent=1,4-Dioxane) polar prop=efg volume
 ----------------------------------------------------------------------

 ---
 spe
 ---
 Structure from the checkpoint file:  "smiles_00085_conf_3.chk"
 Charge =  0 Multiplicity = 1

 SCF Done:  E(RM062X) =  -3277.63776255     A.U. after   12 cycles

  Exact polarizability:     203.445       5.545     198.118       0.001       0.000      92.996
 Approx polarizability:     206.324      10.768     213.379       0.001       0.001     115.778

 Normal termination of Gaussian 16 at Tue Sep 17 10:50:36 2024.
 Gaussian 16:  ES64L-G16RevC.02  7-Dec-2021

 ----------------------------------------------------------------------
 #p M062X/def2tzvp geom=check guess=read scf(xqc,tight) integral(grid=u
 ltrafine) scrf(SMD, solvent=1,4-Dioxane) nmr=giao
 ----------------------------------------------------------------------

 ---
 spe
 ---
 Structure from the checkpoint file:  "smiles_00085_conf_3.chk"
 Charge =  0 Multiplicity = 1

                         Standard orientation:
 ---------------------------------------------------------------------
 Center     Atomic      Atomic             Coordinates (Angstroms)
 Number     Number       Type             X           Y           Z
 ---------------------------------------------------------------------
      1          6           0       -2.549589    4.154546    0.000026
      2          8           0       -2.083978    2.795262   -0.000058
      3          6           0       -0.738040    2.655440   -0.000034
      4          8           0        0.036732    3.581525    0.000017
      5          6           0       -0.345768    1.200824   -0.000032
      6          6           0       -1.318073    0.192839   -0.000015
      7          6           0       -0.878122   -1.126708   -0.000005
      8         35           0       -2.142338   -2.546788    0.000027
      9          6           0        0.481757   -1.404413   -0.000010
     10          6           0        1.361241   -0.314603   -0.000016
     11          6           0        2.833490   -0.626411   -0.000034
     12          8           0        3.262129   -1.764434   -0.000170
     13          8           0        3.595733    0.470768    0.000116
     14          6           0        5.011849    0.225446    0.000074
     15          7           0        0.968921    0.960263   -0.000028
     16          1           0       -3.637011    4.092892    0.000403
     17          1           0       -2.191285    4.679904    0.888183
     18          1           0       -2.191973    4.679803   -0.888483
     19          1           0       -2.370283    0.439950   -0.000010
     20          1           0        0.873064   -2.413099   -0.000012
     21          1           0        5.301481   -0.340340    0.888673
     22          1           0        5.476562    1.210086    0.000139
     23          1           0        5.301442   -0.340212   -0.888616
 ---------------------------------------------------------------------

 SCF Done:  E(RM062X) =  -3277.63776255     A.U. after    1 cycles

      1  C    Isotropic =   130.1799   Anisotropy =    72.9546

      2  O    Isotropic =   132.2130   Anisotropy =   173.3593

      3  C    Isotropic =     4.2636   Anisotropy =    92.8367

      4  O    Isotropic =  -152.9481   Anisotropy =   741.4020

      5  C    Isotropic =    13.4729   Anisotropy =   170.3919

      6  C    Isotropic =    31.0234   Anisotropy =   191.5833

      7  C    Isotropic =     8.3661   Anisotropy =   175.9343

      8  Br   Isotropic =  2019.6320   Anisotropy =  1295.6697

      9  C    Isotropic =    30.4613   Anisotropy =   196.0097

     10  C    Isotropic =    12.4245   Anisotropy =   172.5098

     11  C    Isotropic =    -0.2468   Anisotropy =   103.8889

     12  O    Isotropic =  -132.6056   Anisotropy =   694.3529

     13  O    Isotropic =   130.2418   Anisotropy =   190.7296

     14  C    Isotropic =   129.7755   Anisotropy =    73.6185

     15  N    Isotropic =  -149.6805   Anisotropy =   670.7102

     16  H    Isotropic =    27.9532   Anisotropy =     7.5391

     17  H    Isotropic =    27.8545   Anisotropy =     8.2081

     18  H    Isotropic =    27.8555   Anisotropy =     8.2100

     19  H    Isotropic =    22.6400   Anisotropy =    14.8084

     20  H    Isotropic =    22.4138   Anisotropy =    13.7716

     21  H    Isotropic =    27.8859   Anisotropy =     8.0553

     22  H    Isotropic =    27.8386   Anisotropy =     7.5760

     23  H    Isotropic =    27.8858   Anisotropy =     8.0550

 The electronic state is 1-A.
 Alpha  occ. eigenvalues -- -485.39456 -63.37926 -57.19877 -57.19635 -57.19622
 Alpha  occ. eigenvalues --  -19.68321 -19.68035 -19.62852 -19.62837 -14.78089
 Alpha  occ. eigenvalues --  -10.68686 -10.68666 -10.63597 -10.61684 -10.61559
 Alpha  occ. eigenvalues --  -10.59320 -10.58985 -10.58582 -10.58375  -9.04569
 Alpha  occ. eigenvalues --   -6.86996  -6.86097  -6.86054  -2.90374  -2.90053
 Alpha  occ. eigenvalues --   -2.90008  -2.89171  -2.89171  -1.24355  -1.24291
 Alpha  occ. eigenvalues --   -1.15139  -1.14968  -1.08831  -0.96521  -0.91585
 Alpha  occ. eigenvalues --   -0.86982  -0.84194  -0.82513  -0.76048  -0.74490
 Alpha  occ. eigenvalues --   -0.66737  -0.65774  -0.63176  -0.60930  -0.58699
 Alpha  occ. eigenvalues --   -0.58245  -0.57879  -0.57412  -0.56653  -0.55417
 Alpha  occ. eigenvalues --   -0.51628  -0.50768  -0.50041  -0.47864  -0.47720
 Alpha  occ. eigenvalues --   -0.47002  -0.46446  -0.44235  -0.43616  -0.41849
 Alpha  occ. eigenvalues --   -0.38713  -0.38693  -0.38418  -0.37483  -0.36415
 Alpha  occ. eigenvalues --   -0.35021  -0.34539  -0.33782
 Alpha virt. eigenvalues --   -0.04777  -0.04220   0.02077   0.04751   0.07875
 Alpha virt. eigenvalues --    0.08572   0.10304   0.10425   0.10943   0.11783
 Alpha virt. eigenvalues --    0.12663   0.13178   0.14609   0.15191   0.15647

 Mulliken charges:
               1
     1  C   -0.271682
     2  O   -0.274504
     3  C    0.324185
     4  O   -0.315844
     5  C    0.084010
     6  C   -0.134641
     7  C    0.038551
     8  Br  -0.059782
     9  C   -0.150954
    10  C    0.101858
    11  C    0.344749
    12  O   -0.363495
    13  O   -0.233692
    14  C   -0.276963
    15  N   -0.194515
    16  H    0.158376
    17  H    0.163539
    18  H    0.163540
    19  H    0.202063
    20  H    0.209714
    21  H    0.161042
    22  H    0.163403
    23  H    0.161042
 Sum of Mulliken charges =  -0.00000

 Dipole moment (field-independent basis, Debye):
    X=             -2.2470    Y=              0.4730    Z=              0.0002  Tot=              2.2963
 Quadrupole moment (field-independent basis, Debye-Ang):
   XX=            -81.3915   YY=           -101.9398   ZZ=            -97.3369
   XY=             -7.0759   XZ=              0.0007   YZ=             -0.0007

 Normal termination of Gaussian 16 at Tue Sep 17 11:08:41 2024.
