 Gaussian 16, Revision C.02,

 ----------------------------------------------------------------------
 #p B3LYP/6-31G(d,p) EmpiricalDispersion=GD3BJ opt freq scf(xqc,tight)
 integral(grid=ultrafine)
 ----------------------------------------------------------------------

 ----------------------------------
 opt-freq conformers_unique/conf_aa
 ----------------------------------
 Symbolic Z-matrix:
 Charge =  0 Multiplicity = 1

 SCF Done:  E(RB3LYP) =  -2835.44451630     A.U. after   14 cycles
 SCF Done:  E(RB3LYP) =  -2835.44579880     A.U. after   12 cycles
 SCF Done:  E(RB3LYP) =  -2835.44589777     A.U. after   10 cycles
 SCF Done:  E(RB3LYP) =  -2835.44590365     A.U. after    9 cycles
 Optimization completed.
    -- Stationary point found.
 Normal termination of Gaussian 16 at Tue Sep 17 09:53:36 2024.

 ----------------------------------------------------------------------
 #P Geom=AllCheck Guess=TCheck SCRF=Check GenChk RB3LYP/6-31G(d,p) Freq
 ----------------------------------------------------------------------

 Structure from the checkpoint file:  "smiles_00080_conf_0.chk"
 ----------------------------------
 opt-freq conformers_unique/conf_aa
 ----------------------------------
 Charge =  0 Multiplicity = 1

 SCF Done:  E(RB3LYP) =  -2835.44590365     A.U. after    1 cycles

                      1                      2                      3
                      A                      A                      A
 Frequencies --    158.2634               259.5352               317.0868
 Red. masses --      4.6969                 6.9705                14.2490
 Frc consts  --      0.0693                 0.2766                 0.8441
 IR Inten    --      0.1422                 0.1935                 6.4586

                      4                      5                      6
                      A                      A                      A
 Frequencies --    420.1110               485.4243               622.1881
 Red. masses --      3.4238                 6.1824                 9.7797
 Frc consts  --      0.3560                 0.8583                 2.2306
 IR Inten    --     12.4721                 4.6014                 0.6435

                      7                      8                      9
                      A                      A                      A
 Frequencies --    757.9136               765.5528               864.0579
 Red. masses --      8.0174                 3.4895                 1.3560
 Frc consts  --      2.7135                 1.2049                 0.5965
 IR Inten    --     23.9762                 2.0950                13.7910

                     10                     11                     12
                      A                      A                      A
 Frequencies --    959.0768               984.2874              1022.7572
 Red. masses --      1.3383                 1.4478                 5.9548
 Frc consts  --      0.7253                 0.8264                 3.6699
 IR Inten    --      0.1750                 0.0064                44.3977

                     13                     14                     15
                      A                      A                      A
 Frequencies --   1074.7498              1144.2267              1198.5213
 Red. masses --      3.8600                 2.5429                 1.8670
 Frc consts  --      2.6270                 1.9616                 1.5801
 IR Inten    --     15.0973               130.8138                 4.2540

                     16                     17                     18
                      A                      A                      A
 Frequencies --   1248.2930              1322.0241              1423.9810
 Red. masses --     10.6688                 1.4202                 1.7833
 Frc consts  --      9.7949                 1.4625                 2.1304
 IR Inten    --      1.5517                 4.2954                51.8759

                     19                     20                     21
                      A                      A                      A
 Frequencies --   1495.5080              1582.0696              1605.0549
 Red. masses --      2.0318                 9.4155                 5.0426
 Frc consts  --      2.6773                13.8850                 7.6539
 IR Inten    --     33.6050                39.6396                 2.0408

                     22                     23                     24
                      A                      A                      A
 Frequencies --   3182.4449              3199.0646              3204.9319
 Red. masses --      1.0879                 1.0950                 1.0954
 Frc consts  --      6.4919                 6.6023                 6.6289
 IR Inten    --      2.3841                33.9066                 0.6355

 - Thermochemistry -
 -------------------
 Temperature   298.150 Kelvin.  Pressure   1.00000 Atm.
 Atom     1 has atomic number 35 and mass  78.91834

 Molecular mass:   157.94796 amu.
 Principal axes and moments of inertia in atomic units:
                           1         2         3
     Eigenvalues --   298.189391764.163702062.35308
           X            0.99993  -0.01174  -0.00012
           Y            0.01174   0.99993   0.00006
           Z            0.00012  -0.00006   1.00000
 This molecule is an asymmetric top.
 Rotational symmetry number  1.
 Rotational temperatures (Kelvin)      0.29047     0.04910     0.04200
 Rotational constants (GHZ):           6.05233     1.02300     0.87509
 Zero-point vibrational energy     175235.7 (Joules/Mol)
                                   41.88234 (Kcal/Mol)
 Warning -- explicit consideration of   5 degrees of freedom as
           vibrations may cause significant error
 Vibrational temperatures:    227.71   373.41   456.22   604.45   698.42
          (Kelvin)            895.19  1090.47  1101.46  1243.19  1379.90
                             1416.17  1471.52  1546.33  1646.29  1724.40
                             1796.02  1902.10  2048.79  2151.70  2276.25
                             2309.32  4578.83  4602.74  4611.18

 Zero-point correction=                           0.066744 (Hartree/Particle)
 Thermal correction to Energy=                    0.072217
 Thermal correction to Enthalpy=                  0.073162
 Thermal correction to Gibbs Free Energy=         0.035950
 Sum of electronic and zero-point Energies=          -2835.379160
 Sum of electronic and thermal Energies=             -2835.373686
 Sum of electronic and thermal Enthalpies=           -2835.372742
 Sum of electronic and thermal Free Energies=        -2835.409954

                     E (Thermal)             CV                S
                      KCal/Mol        Cal/Mol-Kelvin    Cal/Mol-Kelvin
 Total                   45.317             19.438             78.319
 Electronic               0.000              0.000              0.000
 Translational            0.889              2.981             41.081
 Rotational               0.889              2.981             28.475
 Vibrational             43.540             13.476              8.764
 Vibration     1          0.621              1.893              2.570
 Vibration     2          0.668              1.747              1.665
 Vibration     3          0.704              1.641              1.325
 Vibration     4          0.783              1.427              0.892
 Vibration     5          0.841              1.282              0.696

 Optimization completed.
    -- Stationary point found.
 Normal termination of Gaussian 16 at Tue Sep 17 09:53:53 2024.

 ----------------------------------------------------------------------
 #p M062X/def2tzvp geom=check guess=read scf(xqc,tight) integral(grid=u
 ltrafine) scrf(SMD, solvent=1,4-Dioxane) polar prop=efg volume
 ----------------------------------------------------------------------

 ---
 spe
 ---
 Structure from the checkpoint file:  "smiles_00080_conf_0.chk"
 Charge =  0 Multiplicity = 1

 SCF Done:  E(RM062X) =  -2837.90520150     A.U. after   12 cycles

  Exact polarizability:     130.274      -5.774      86.330       0.010      -0.003      49.880
 Approx polarizability:     138.816      -5.359     105.512       0.010      -0.003      61.822

 Normal termination of Gaussian 16 at Tue Sep 17 09:57:46 2024.
 Gaussian 16:  ES64L-G16RevC.02  7-Dec-2021

 ----------------------------------------------------------------------
 #p M062X/def2tzvp geom=check guess=read scf(xqc,tight) integral(grid=u
 ltrafine) scrf(SMD, solvent=1,4-Dioxane) nmr=giao
 ----------------------------------------------------------------------

 ---
 spe
 ---
 Structure from the checkpoint file:  "smiles_00080_conf_0.chk"
 Charge =  0 Multiplicity = 1

                         Standard orientation:
 ---------------------------------------------------------------------
 Center     Atomic      Atomic             Coordinates (Angstroms)
 Number     Number       Type             X           Y           Z
 ---------------------------------------------------------------------
      1         35           0       -1.774181   -0.010726   -0.000221
      2          6           0        0.138242   -0.029781    0.000046
      3          6           0        0.825759    1.191066    0.000030
      4          7           0        2.157857    1.219371    0.000193
      5          6           0        2.786912    0.036123    0.000346
      6          6           0        2.084816   -1.167496    0.000314
      7          7           0        0.744623   -1.200320    0.000167
      8          1           0        0.290898    2.135695   -0.000115
      9          1           0        3.873338    0.051035    0.000483
     10          1           0        2.600350   -2.124151    0.000419
 ---------------------------------------------------------------------

 SCF Done:  E(RM062X) =  -2837.90520150     A.U. after    1 cycles

      1  Br   Isotropic =  1971.9244   Anisotropy =  1410.1905

      2  C    Isotropic =     3.5539   Anisotropy =   121.1463

      3  C    Isotropic =    12.3191   Anisotropy =   174.5453

      4  N    Isotropic =  -177.9249   Anisotropy =   702.5152

      5  C    Isotropic =    17.8924   Anisotropy =   203.0440

      6  C    Isotropic =    16.9860   Anisotropy =   189.4951

      7  N    Isotropic =  -161.9593   Anisotropy =   632.7673

      8  H    Isotropic =    22.2767   Anisotropy =    11.6417

      9  H    Isotropic =    22.4451   Anisotropy =     6.6064

     10  H    Isotropic =    22.5923   Anisotropy =     6.7904

 The electronic state is 1-A.
 Alpha  occ. eigenvalues -- -485.38478 -63.36974 -57.18917 -57.18682 -57.18669
 Alpha  occ. eigenvalues --  -14.78935 -14.78620 -10.64970 -10.60552 -10.60285
 Alpha  occ. eigenvalues --  -10.59773  -9.03629  -6.86040  -6.85168  -6.85124
 Alpha  occ. eigenvalues --   -2.89416  -2.89106  -2.89060  -2.88249  -2.88248
 Alpha  occ. eigenvalues --   -1.11749  -1.03796  -0.92338  -0.85272  -0.76724
 Alpha  occ. eigenvalues --   -0.73837  -0.61575  -0.60860  -0.55808  -0.52694
 Alpha  occ. eigenvalues --   -0.50543  -0.45725  -0.42097  -0.41086  -0.38503
 Alpha  occ. eigenvalues --   -0.36231  -0.33471  -0.32165
 Alpha virt. eigenvalues --   -0.03407  -0.00980   0.03245   0.09760   0.10830
 Alpha virt. eigenvalues --    0.12435   0.12925   0.15142   0.15948   0.20109
 Alpha virt. eigenvalues --    0.21756   0.22254   0.22406   0.24239   0.25969

 Mulliken charges:
               1
     1  Br  -0.085773
     2  C    0.139959
     3  C   -0.078862
     4  N   -0.213486
     5  C   -0.051088
     6  C   -0.040226
     7  N   -0.207052
     8  H    0.186893
     9  H    0.174004
    10  H    0.175632
 Sum of Mulliken charges =  -0.00000

 Dipole moment (field-independent basis, Debye):
    X=              1.9237    Y=             -0.1646    Z=              0.0002  Tot=              1.9308
 Quadrupole moment (field-independent basis, Debye-Ang):
   XX=            -46.1837   YY=            -53.8563   ZZ=            -53.7266
   XY=             -6.8319   XZ=              0.0014   YZ=             -0.0008

 Normal termination of Gaussian 16 at Tue Sep 17 09:59:42 2024.
