 Gaussian 16, Revision C.02,

 ----------------------------------------------------------------------
 #p B3LYP/6-31G(d,p) EmpiricalDispersion=GD3BJ opt freq scf(xqc,tight)
 integral(grid=ultrafine)
 ----------------------------------------------------------------------

 ----------------------------------
 opt-freq conformers_unique/conf_ac
 ----------------------------------
 Symbolic Z-matrix:
 Charge =  0 Multiplicity = 1

 SCF Done:  E(RB3LYP) =  -860.563245506     A.U. after   15 cycles
 SCF Done:  E(RB3LYP) =  -860.566070084     A.U. after   14 cycles
 SCF Done:  E(RB3LYP) =  -860.566561663     A.U. after   14 cycles
 SCF Done:  E(RB3LYP) =  -860.567235444     A.U. after   13 cycles
 SCF Done:  E(RB3LYP) =  -860.567591507     A.U. after   12 cycles
 SCF Done:  E(RB3LYP) =  -860.568016663     A.U. after   13 cycles
 SCF Done:  E(RB3LYP) =  -860.568418569     A.U. after   12 cycles
 SCF Done:  E(RB3LYP) =  -860.569041066     A.U. after   13 cycles
 SCF Done:  E(RB3LYP) =  -860.569316855     A.U. after   13 cycles
 SCF Done:  E(RB3LYP) =  -860.569455425     A.U. after   11 cycles
 SCF Done:  E(RB3LYP) =  -860.569470478     A.U. after   11 cycles
 SCF Done:  E(RB3LYP) =  -860.569493854     A.U. after   11 cycles
 SCF Done:  E(RB3LYP) =  -860.569494836     A.U. after    8 cycles
 SCF Done:  E(RB3LYP) =  -860.569494986     A.U. after    7 cycles
 Optimization completed.
    -- Stationary point found.
 Normal termination of Gaussian 16 at Tue Sep 17 09:54:12 2024.

 ----------------------------------------------------------------------
 #P Geom=AllCheck Guess=TCheck SCRF=Check GenChk RB3LYP/6-31G(d,p) Freq
 ----------------------------------------------------------------------

 Structure from the checkpoint file:  "smiles_00113_conf_2.chk"
 ----------------------------------
 opt-freq conformers_unique/conf_ac
 ----------------------------------
 Charge =  0 Multiplicity = 1

 SCF Done:  E(RB3LYP) =  -860.569494986     A.U. after    1 cycles

                      1                      2                      3
                      A                      A                      A
 Frequencies --     68.3245                82.9147               164.7831
 Red. masses --      4.1489                 9.0222                 1.0343
 Frc consts  --      0.0114                 0.0365                 0.0165
 IR Inten    --      5.9281                 2.1171                 0.3081

                      4                      5                      6
                      A                      A                      A
 Frequencies --    173.2050               252.5837               303.6600
 Red. masses --      5.7502                 6.6237                 6.0450
 Frc consts  --      0.1016                 0.2490                 0.3284
 IR Inten    --      6.1279                 0.7464                 3.2073

                      7                      8                      9
                      A                      A                      A
 Frequencies --    333.7817               418.7190               442.4312
 Red. masses --      8.9265                 3.4619                 3.6438
 Frc consts  --      0.5859                 0.3576                 0.4202
 IR Inten    --      0.9096                 3.2175                10.8929

                     10                     11                     12
                      A                      A                      A
 Frequencies --    482.7376               526.6638               607.8871
 Red. masses --      3.1907                 9.3329                 2.5802
 Frc consts  --      0.4381                 1.5252                 0.5618
 IR Inten    --      0.6993                26.9570                 3.2505

                     13                     14                     15
                      A                      A                      A
 Frequencies --    627.8540               645.2149               756.6084
 Red. masses --      4.3254                 7.5167                 5.2501
 Frc consts  --      1.0046                 1.8437                 1.7708
 IR Inten    --      4.0866                 2.1624                 5.6373

                     16                     17                     18
                      A                      A                      A
 Frequencies --    801.1219               860.1939               953.1319
 Red. masses --      6.8664                 1.3698                 1.3946
 Frc consts  --      2.5964                 0.5972                 0.7465
 IR Inten    --     32.4285                23.0302                 2.5240

                     19                     20                     21
                      A                      A                      A
 Frequencies --    967.4008              1013.6936              1035.1244
 Red. masses --      2.1590                 1.3324                 3.5969
 Frc consts  --      1.1904                 0.8067                 2.2707
 IR Inten    --     37.4047                 0.9517                12.5333

                     22                     23                     24
                      A                      A                      A
 Frequencies --   1050.3451              1104.6074              1137.0447
 Red. masses --      1.8593                 2.6295                 2.4242
 Frc consts  --      1.2086                 1.8903                 1.8466
 IR Inten    --      1.1343                 3.6465               164.6798

                     25                     26                     27
                      A                      A                      A
 Frequencies --   1156.3375              1293.6564              1328.5527
 Red. masses --      1.5028                 3.3146                 8.1366
 Frc consts  --      1.1839                 3.2683                 8.4616
 IR Inten    --     18.5409               164.3558                 5.9759

                     28                     29                     30
                      A                      A                      A
 Frequencies --   1332.2097              1393.2441              1406.4317
 Red. masses --      1.4797                 1.7946                 2.0379
 Frc consts  --      1.5473                 2.0524                 2.3750
 IR Inten    --     22.4270                 5.8825               143.3284

                     31                     32                     33
                      A                      A                      A
 Frequencies --   1481.2098              1491.1490              1507.6385
 Red. masses --      1.0666                 1.0471                 2.3197
 Frc consts  --      1.3788                 1.3718                 3.1066
 IR Inten    --     11.0249                10.4378                31.6417

                     34                     35                     36
                      A                      A                      A
 Frequencies --   1607.2296              1637.7007              1784.7449
 Red. masses --      7.3726                 5.6041                10.9424
 Frc consts  --     11.2208                 8.8557                20.5360
 IR Inten    --     33.4845               176.3019               160.6439

                     37                     38                     39
                      A                      A                      A
 Frequencies --   3050.9965              3114.5051              3173.0487
 Red. masses --      1.0379                 1.0999                 1.1019
 Frc consts  --      5.6926                 6.2862                 6.5365
 IR Inten    --      2.0320                 6.7319                10.0942

                     40                     41                     42
                      A                      A                      A
 Frequencies --   3191.0480              3220.0702              3236.1430
 Red. masses --      1.0906                 1.0894                 1.0961
 Frc consts  --      6.5431                 6.6551                 6.7632
 IR Inten    --     12.7349                 0.4999                 1.8153

 - Thermochemistry -
 -------------------
 Temperature   298.150 Kelvin.  Pressure   1.00000 Atm.
 Atom     1 has atomic number  6 and mass  12.00000

 Molecular mass:   155.01379 amu.
 Principal axes and moments of inertia in atomic units:
                           1         2         3
     Eigenvalues --   482.946343192.684463664.42271
           X            0.99970  -0.02466  -0.00000
           Y            0.02466   0.99970  -0.00000
           Z            0.00000   0.00000   1.00000
 This molecule is an asymmetric top.
 Rotational symmetry number  1.
 Warning -- assumption of classical behavior for rotation
           may cause significant error
 Rotational temperatures (Kelvin)      0.17934     0.02713     0.02364
 Rotational constants (GHZ):           3.73694     0.56527     0.49250
 Zero-point vibrational energy     306339.4 (Joules/Mol)
                                   73.21687 (Kcal/Mol)
 Warning -- explicit consideration of  12 degrees of freedom as
           vibrations may cause significant error
 Vibrational temperatures:     98.30   119.30   237.09   249.20   363.41
          (Kelvin)            436.90   480.24   602.44   636.56   694.55
                              757.75   874.61   903.34   928.32  1088.59
                             1152.64  1237.63  1371.34  1391.87  1458.48
                             1489.31  1511.21  1589.28  1635.95  1663.71
                             1861.28  1911.49  1916.75  2004.57  2023.54
                             2131.13  2145.43  2169.16  2312.44  2356.29
                             2567.85  4389.70  4481.08  4565.31  4591.21
                             4632.96  4656.09

 Zero-point correction=                           0.116679 (Hartree/Particle)
 Thermal correction to Energy=                    0.125568
 Thermal correction to Enthalpy=                  0.126513
 Thermal correction to Gibbs Free Energy=         0.081827
 Sum of electronic and zero-point Energies=           -860.452816
 Sum of electronic and thermal Energies=              -860.443926
 Sum of electronic and thermal Enthalpies=            -860.442982
 Sum of electronic and thermal Free Energies=         -860.487668

                     E (Thermal)             CV                S
                      KCal/Mol        Cal/Mol-Kelvin    Cal/Mol-Kelvin
 Total                   78.795             32.449             94.049
 Electronic               0.000              0.000              0.000
 Translational            0.889              2.981             41.025
 Rotational               0.889              2.981             30.114
 Vibrational             77.018             26.488             22.910
 Vibration     1          0.598              1.969              4.201
 Vibration     2          0.600              1.961              3.821
 Vibration     3          0.623              1.886              2.494
 Vibration     4          0.627              1.875              2.400
 Vibration     5          0.664              1.758              1.712
 Vibration     6          0.695              1.667              1.397
 Vibration     7          0.715              1.608              1.242
 Vibration     8          0.782              1.430              0.896
 Vibration     9          0.802              1.378              0.819
 Vibration    10          0.839              1.288              0.703
 Vibration    11          0.882              1.191              0.595
 Vibration    12          0.967              1.015              0.436

 Optimization completed.
    -- Stationary point found.
 Normal termination of Gaussian 16 at Tue Sep 17 09:55:16 2024.

 ----------------------------------------------------------------------
 #p M062X/def2tzvp geom=check guess=read scf(xqc,tight) integral(grid=u
 ltrafine) scrf(SMD, solvent=1,4-Dioxane) polar prop=efg volume
 ----------------------------------------------------------------------

 ---
 spe
 ---
 Structure from the checkpoint file:  "smiles_00113_conf_2.chk"
 Charge =  0 Multiplicity = 1

 SCF Done:  E(RM062X) =  -860.525107357     A.U. after   12 cycles

  Exact polarizability:     171.639       0.499     115.348      -0.000       0.000      64.879
 Approx polarizability:     170.275       6.803     139.265      -0.000       0.001      80.853

 Normal termination of Gaussian 16 at Tue Sep 17 10:20:07 2024.
 Gaussian 16:  ES64L-G16RevC.02  7-Dec-2021

 ----------------------------------------------------------------------
 #p M062X/def2tzvp geom=check guess=read scf(xqc,tight) integral(grid=u
 ltrafine) scrf(SMD, solvent=1,4-Dioxane) nmr=giao
 ----------------------------------------------------------------------

 ---
 spe
 ---
 Structure from the checkpoint file:  "smiles_00113_conf_2.chk"
 Charge =  0 Multiplicity = 1

                         Standard orientation:
 ---------------------------------------------------------------------
 Center     Atomic      Atomic             Coordinates (Angstroms)
 Number     Number       Type             X           Y           Z
 ---------------------------------------------------------------------
      1          6           0        3.333886   -1.154359   -0.000040
      2          6           0        2.553395    0.143934   -0.000012
      3          8           0        3.119800    1.225239    0.000147
      4          6           0        1.058129    0.081459   -0.000070
      5          6           0        0.328117    1.280038   -0.000085
      6          6           0       -1.056030    1.237330   -0.000064
      7          6           0       -1.656081   -0.028123    0.000012
      8         17           0       -3.409536   -0.122664    0.000023
      9          7           0       -1.002026   -1.175761    0.000065
     10          6           0        0.336216   -1.115249   -0.000041
     11          1           0        3.090264   -1.755515   -0.882619
     12          1           0        4.398838   -0.923453    0.000347
     13          1           0        3.089664   -1.755934    0.882094
     14          1           0        0.870873    2.219012   -0.000064
     15          1           0       -1.661079    2.135299   -0.000064
     16          1           0        0.843554   -2.075872    0.000093
 ---------------------------------------------------------------------

 SCF Done:  E(RM062X) =  -860.525107357     A.U. after    1 cycles

      1  C    Isotropic =   155.9033   Anisotropy =    49.5877

      2  C    Isotropic =   -39.2299   Anisotropy =   210.6054

      3  O    Isotropic =  -414.8260   Anisotropy =  1157.6414

      4  C    Isotropic =    32.9363   Anisotropy =   198.9787

      5  C    Isotropic =    22.0663   Anisotropy =   247.2605

      6  C    Isotropic =    39.4824   Anisotropy =   178.5701

      7  C    Isotropic =    -1.3197   Anisotropy =   130.3209

      8  Cl   Isotropic =   584.4054   Anisotropy =   615.4109

      9  N    Isotropic =  -125.3618   Anisotropy =   569.9414

     10  C    Isotropic =    10.2208   Anisotropy =   196.9025

     11  H    Isotropic =    28.9604   Anisotropy =     4.5929

     12  H    Isotropic =    29.3742   Anisotropy =     6.2597

     13  H    Isotropic =    28.9593   Anisotropy =     4.5915

     14  H    Isotropic =    22.4849   Anisotropy =     7.9630

     15  H    Isotropic =    23.6304   Anisotropy =     9.3239

     16  H    Isotropic =    21.9223   Anisotropy =     8.7056

 The electronic state is 1-A.
 Alpha  occ. eigenvalues -- -102.65474 -19.62947 -14.77639 -10.65556 -10.64652
 Alpha  occ. eigenvalues --  -10.60535 -10.58043 -10.57392 -10.57304 -10.54468
 Alpha  occ. eigenvalues --   -9.81748  -7.53935  -7.53441  -7.53406  -1.17634
 Alpha  occ. eigenvalues --   -1.09262  -0.96527  -0.93227  -0.87950  -0.83355
 Alpha  occ. eigenvalues --   -0.75125  -0.72711  -0.65531  -0.60300  -0.58933
 Alpha  occ. eigenvalues --   -0.55455  -0.53173  -0.53110  -0.51336  -0.50654
 Alpha  occ. eigenvalues --   -0.48866  -0.46926  -0.45238  -0.44383  -0.41269
 Alpha  occ. eigenvalues --   -0.39123  -0.36640  -0.36183  -0.33970  -0.32448
 Alpha virt. eigenvalues --   -0.04462  -0.01544   0.05493   0.06333   0.07480
 Alpha virt. eigenvalues --    0.10487   0.12436   0.12730   0.13341   0.14331
 Alpha virt. eigenvalues --    0.14773   0.17216   0.17313   0.19033   0.20214

 Mulliken charges:
               1
     1  C   -0.536223
     2  C    0.291967
     3  O   -0.331960
     4  C    0.004260
     5  C   -0.126346
     6  C   -0.194590
     7  C    0.157292
     8  Cl  -0.076047
     9  N   -0.221980
    10  C   -0.070366
    11  H    0.185384
    12  H    0.171187
    13  H    0.185340
    14  H    0.193889
    15  H    0.183002
    16  H    0.185191
 Sum of Mulliken charges =  -0.00000

 Dipole moment (field-independent basis, Debye):
    X=              1.1613    Y=             -0.5756    Z=             -0.0004  Tot=              1.2961
 Quadrupole moment (field-independent basis, Debye-Ang):
   XX=            -72.0911   YY=            -62.8780   ZZ=            -65.2705
   XY=            -13.9228   XZ=             -0.0010   YZ=             -0.0004

 Normal termination of Gaussian 16 at Tue Sep 17 10:28:38 2024.
