 Gaussian 16, Revision C.02,

 ----------------------------------------------------------------------
 #p B3LYP/6-31G(d,p) EmpiricalDispersion=GD3BJ opt freq scf(xqc,tight)
 integral(grid=ultrafine)
 ----------------------------------------------------------------------

 ----------------------------------
 opt-freq conformers_unique/conf_ad
 ----------------------------------
 Symbolic Z-matrix:
 Charge =  0 Multiplicity = 1

 SCF Done:  E(RB3LYP) =  -2996.56005103     A.U. after   14 cycles
 SCF Done:  E(RB3LYP) =  -2996.56152635     A.U. after   11 cycles
 SCF Done:  E(RB3LYP) =  -2996.56159463     A.U. after   11 cycles
 SCF Done:  E(RB3LYP) =  -2996.56179624     A.U. after   10 cycles
 SCF Done:  E(RB3LYP) =  -2996.56180572     A.U. after    9 cycles
 SCF Done:  E(RB3LYP) =  -2996.56179001     A.U. after   10 cycles
 SCF Done:  E(RB3LYP) =  -2996.56180754     A.U. after    9 cycles
 SCF Done:  E(RB3LYP) =  -2996.56180846     A.U. after    8 cycles
 SCF Done:  E(RB3LYP) =  -2996.56180849     A.U. after    6 cycles
 Optimization completed.
    -- Stationary point found.
 Normal termination of Gaussian 16 at Tue Sep 17 09:55:21 2024.

 ----------------------------------------------------------------------
 #P Geom=AllCheck Guess=TCheck SCRF=Check GenChk RB3LYP/6-31G(d,p) Freq
 ----------------------------------------------------------------------

 Structure from the checkpoint file:  "smiles_00017_conf_3.chk"
 ----------------------------------
 opt-freq conformers_unique/conf_ad
 ----------------------------------
 Charge =  0 Multiplicity = 1

 SCF Done:  E(RB3LYP) =  -2996.56180849     A.U. after    1 cycles
 ******    1 imaginary frequencies (negative Signs) ******

                      1                      2                      3
                      A                      A                      A
 Frequencies --     -8.0504                79.5077               124.9511
 Red. masses --      4.0672                 2.5311                 6.9572
 Frc consts  --      0.0002                 0.0094                 0.0640
 IR Inten    --      0.8380                 0.1818                 0.4990

                      4                      5                      6
                      A                      A                      A
 Frequencies --    147.2306               194.4265               213.2161
 Red. masses --      2.0722                 2.0572                 1.5753
 Frc consts  --      0.0265                 0.0458                 0.0422
 IR Inten    --      0.5095                 0.6119                 0.0448

                      7                      8                      9
                      A                      A                      A
 Frequencies --    213.7123               267.7869               303.7118
 Red. masses --      1.3779                 4.4058                 6.9549
 Frc consts  --      0.0371                 0.1861                 0.3780
 IR Inten    --      0.0217                 0.3557                 0.6480

                     10                     11                     12
                      A                      A                      A
 Frequencies --    339.0980               410.1288               426.1163
 Red. masses --      2.9989                 3.4370                 2.9591
 Frc consts  --      0.2032                 0.3406                 0.3166
 IR Inten    --      0.0889                 7.4833                 1.1945

                     13                     14                     15
                      A                      A                      A
 Frequencies --    464.6860               507.3251               559.6885
 Red. masses --      3.4523                 4.2957                 3.8153
 Frc consts  --      0.4392                 0.6514                 0.7042
 IR Inten    --      0.3799                 4.0055                 0.0003

                     16                     17                     18
                      A                      A                      A
 Frequencies --    640.7046               674.6868               745.0526
 Red. masses --      3.6471                 6.3120                 3.4025
 Frc consts  --      0.8821                 1.6929                 1.1128
 IR Inten    --      2.3971                19.9295                 0.2587

                     19                     20                     21
                      A                      A                      A
 Frequencies --    763.8515               764.8568               856.2796
 Red. masses --      1.2948                 5.0875                 3.0522
 Frc consts  --      0.4451                 1.7535                 1.3186
 IR Inten    --     54.6476                 0.4473                 5.7755

                     22                     23                     24
                      A                      A                      A
 Frequencies --    865.8033               933.2896               947.2543
 Red. masses --      1.4342                 1.3436                 1.3493
 Frc consts  --      0.6334                 0.6895                 0.7134
 IR Inten    --      2.1929                 0.5106                 2.4394

                     25                     26                     27
                      A                      A                      A
 Frequencies --    956.0331               980.1825               982.4668
 Red. masses --      1.2440                 3.0153                 1.2678
 Frc consts  --      0.6699                 1.7068                 0.7210
 IR Inten    --      0.3420                38.1091                 0.0019

                     28                     29                     30
                      A                      A                      A
 Frequencies --   1048.5551              1077.3371              1155.8873
 Red. masses --      7.4638                 1.9647                 1.5040
 Frc consts  --      4.8349                 1.3435                 1.1839
 IR Inten    --     53.0275                 5.8756                 1.5086

                     31                     32                     33
                      A                      A                      A
 Frequencies --   1159.4808              1177.3248              1191.0177
 Red. masses --      2.2687                 1.9901                 1.2106
 Frc consts  --      1.7971                 1.6252                 1.0118
 IR Inten    --     13.4388               109.4683                22.5304

                     34                     35                     36
                      A                      A                      A
 Frequencies --   1200.5311              1284.2596              1304.2201
 Red. masses --      1.6903                 2.4983                 1.6760
 Frc consts  --      1.4353                 2.4277                 1.6797
 IR Inten    --      6.4139               141.1391               107.9819

                     37                     38                     39
                      A                      A                      A
 Frequencies --   1346.1561              1382.6019              1418.1607
 Red. masses --      6.3978                 1.3035                 1.2896
 Frc consts  --      6.8308                 1.4681                 1.5281
 IR Inten    --     26.3432                 4.2646                16.1003

                     40                     41                     42
                      A                      A                      A
 Frequencies --   1427.2312              1435.7944              1485.0862
 Red. masses --      1.2744                 1.2456                 2.1723
 Frc consts  --      1.5295                 1.5129                 2.8227
 IR Inten    --      6.5079                20.2816                14.3811

                     43                     44                     45
                      A                      A                      A
 Frequencies --   1502.4214              1503.5361              1511.4754
 Red. masses --      1.0563                 1.0515                 1.0713
 Frc consts  --      1.4048                 1.4005                 1.4420
 IR Inten    --      0.0563                 0.0230                12.9805

                     46                     47                     48
                      A                      A                      A
 Frequencies --   1518.3932              1528.9317              1625.2159
 Red. masses --      1.6241                 1.4702                 5.7752
 Frc consts  --      2.2062                 2.0249                 8.9875
 IR Inten    --     73.1505                90.6052                 8.6979

                     49                     50                     51
                      A                      A                      A
 Frequencies --   1648.0067              3059.8510              3063.8437
 Red. masses --      6.3522                 1.0373                 1.0407
 Frc consts  --     10.1647                 5.7220                 5.7559
 IR Inten    --     57.6445                14.5874                10.9961

                     52                     53                     54
                      A                      A                      A
 Frequencies --   3071.0974              3130.6772              3133.7022
 Red. masses --      1.0833                 1.1007                 1.1015
 Frc consts  --      6.0201                 6.3560                 6.3730
 IR Inten    --     19.9619                 7.3397                39.9229

                     55                     56                     57
                      A                      A                      A
 Frequencies --   3150.5319              3153.6513              3190.9938
 Red. masses --      1.1021                 1.1012                 1.0869
 Frc consts  --      6.4455                 6.4525                 6.5204
 IR Inten    --      2.9488                44.2974                 3.4063

                     58                     59                     60
                      A                      A                      A
 Frequencies --   3207.0958              3221.1899              3262.0369
 Red. masses --      1.0916                 1.0960                 1.0901
 Frc consts  --      6.6149                 6.7004                 6.8342
 IR Inten    --     12.6843                 9.5523                10.0193

 - Thermochemistry -
 -------------------
 Temperature   298.150 Kelvin.  Pressure   1.00000 Atm.
 Atom     1 has atomic number  6 and mass  12.00000

 Molecular mass:   213.99933 amu.
 Principal axes and moments of inertia in atomic units:
                           1         2         3
     Eigenvalues --  1806.301082980.190644382.75439
           X            0.99329   0.11563   0.00000
           Y           -0.11563   0.99329  -0.00001
           Z           -0.00000   0.00001   1.00000
 This molecule is an asymmetric top.
 Rotational symmetry number  1.
 Warning -- assumption of classical behavior for rotation
           may cause significant error
 Rotational temperatures (Kelvin)      0.04795     0.02906     0.01976
 Rotational constants (GHZ):           0.99914     0.60558     0.41178
    1 imaginary frequencies ignored.
 Zero-point vibrational energy     472156.1 (Joules/Mol)
                                  112.84803 (Kcal/Mol)
 Warning -- explicit consideration of  14 degrees of freedom as
           vibrations may cause significant error
 Vibrational temperatures:    114.39   179.78   211.83   279.74   306.77
          (Kelvin)            307.48   385.29   436.97   487.89   590.08
                              613.09   668.58   729.93   805.27   921.83
                              970.72  1071.96  1099.01  1100.46  1232.00
                             1245.70  1342.80  1362.89  1375.52  1410.26
                             1413.55  1508.64  1550.05  1663.06  1668.23
                             1693.91  1713.61  1727.30  1847.76  1876.48
                             1936.82  1989.26  2040.42  2053.47  2065.79
                             2136.71  2161.65  2163.25  2174.68  2184.63
                             2199.79  2338.32  2371.11  4402.44  4408.19
                             4418.62  4504.35  4508.70  4532.91  4537.40
                             4591.13  4614.30  4634.57  4693.34

 Zero-point correction=                           0.179835 (Hartree/Particle)
 Thermal correction to Energy=                    0.190038
 Thermal correction to Enthalpy=                  0.190982
 Thermal correction to Gibbs Free Energy=         0.143356
 Sum of electronic and zero-point Energies=          -2996.381974
 Sum of electronic and thermal Energies=             -2996.371770
 Sum of electronic and thermal Enthalpies=           -2996.370826
 Sum of electronic and thermal Free Energies=        -2996.418452

                     E (Thermal)             CV                S
                      KCal/Mol        Cal/Mol-Kelvin    Cal/Mol-Kelvin
 Total                  119.251             39.101            100.238
 Electronic               0.000              0.000              0.000
 Translational            0.889              2.981             41.986
 Rotational               0.889              2.981             31.534
 Vibrational            117.473             33.139             26.718
 Vibration     1          0.600              1.963              3.903
 Vibration     2          0.610              1.928              3.022
 Vibration     3          0.617              1.906              2.708
 Vibration     4          0.635              1.848              2.185
 Vibration     5          0.644              1.821              2.016
 Vibration     6          0.644              1.820              2.012
 Vibration     7          0.673              1.732              1.610
 Vibration     8          0.695              1.667              1.396
 Vibration     9          0.719              1.597              1.216
 Vibration    10          0.774              1.448              0.926
 Vibration    11          0.788              1.413              0.871
 Vibration    12          0.822              1.328              0.753
 Vibration    13          0.863              1.234              0.640
 Vibration    14          0.915              1.119              0.524

                           ! Non-Optimized Parameters !
 Normal termination of Gaussian 16 at Tue Sep 17 09:57:46 2024.

 ----------------------------------------------------------------------
 #p M062X/def2tzvp geom=check guess=read scf(xqc,tight) integral(grid=u
 ltrafine) scrf(SMD, solvent=1,4-Dioxane) polar prop=efg volume
 ----------------------------------------------------------------------

 ---
 spe
 ---
 Structure from the checkpoint file:  "smiles_00017_conf_3.chk"
 Charge =  0 Multiplicity = 1

 SCF Done:  E(RM062X) =  -2998.96995443     A.U. after   12 cycles

  Exact polarizability:     169.845       0.389     174.232       0.012       0.005      98.817
 Approx polarizability:     176.377      -4.865     191.003       0.013       0.011     113.633

 Normal termination of Gaussian 16 at Tue Sep 17 10:48:28 2024.
 Gaussian 16:  ES64L-G16RevC.02  7-Dec-2021

 ----------------------------------------------------------------------
 #p M062X/def2tzvp geom=check guess=read scf(xqc,tight) integral(grid=u
 ltrafine) scrf(SMD, solvent=1,4-Dioxane) nmr=giao
 ----------------------------------------------------------------------

 ---
 spe
 ---
 Structure from the checkpoint file:  "smiles_00017_conf_3.chk"
 Charge =  0 Multiplicity = 1

                         Standard orientation:
 ---------------------------------------------------------------------
 Center     Atomic      Atomic             Coordinates (Angstroms)
 Number     Number       Type             X           Y           Z
 ---------------------------------------------------------------------
      1          6           0       -3.071661   -0.648634   -1.287678
      2          6           0       -2.387330   -1.106095    0.000058
      3          6           0       -3.069450   -0.649091    1.289100
      4          8           0       -0.968122   -0.845985   -0.000994
      5          6           0       -0.414002    0.389850   -0.000494
      6          6           0       -1.095999    1.614822   -0.000471
      7          6           0       -0.394905    2.821259   -0.000041
      8          6           0        0.996538    2.838280    0.000332
      9          6           0        1.691268    1.628243    0.000283
     10          6           0        0.994460    0.426907   -0.000103
     11         35           0        1.970132   -1.211599   -0.000096
     12          1           0       -3.179518    0.435245   -1.355943
     13          1           0       -4.072499   -1.088425   -1.339088
     14          1           0       -2.500943   -0.991760   -2.154361
     15          1           0       -2.393506   -2.200602   -0.000195
     16          1           0       -4.070873   -1.087451    1.341305
     17          1           0       -3.175542    0.434885    1.358564
     18          1           0       -2.498147   -0.993905    2.154726
     19          1           0       -2.175329    1.635957   -0.000821
     20          1           0       -0.952832    3.752401   -0.000027
     21          1           0        1.541113    3.776266    0.000653
     22          1           0        2.774931    1.607996    0.000569
 ---------------------------------------------------------------------

 SCF Done:  E(RM062X) =  -2998.96995443     A.U. after    1 cycles

      1  C    Isotropic =   165.9333   Anisotropy =    31.8320

      2  C    Isotropic =   107.6284   Anisotropy =    78.4251

      3  C    Isotropic =   165.9675   Anisotropy =    31.8250

      4  O    Isotropic =   164.1829   Anisotropy =   124.5940

      5  C    Isotropic =     9.8529   Anisotropy =   160.4393

      6  C    Isotropic =    51.1847   Anisotropy =   176.8412

      7  C    Isotropic =    36.3156   Anisotropy =   212.0000

      8  C    Isotropic =    45.6967   Anisotropy =   197.3438

      9  C    Isotropic =    28.4401   Anisotropy =   183.1282

     10  C    Isotropic =    37.0719   Anisotropy =   114.4774

     11  Br   Isotropic =  2185.7336   Anisotropy =  1045.4761

     12  H    Isotropic =    29.7761   Anisotropy =     6.1321

     13  H    Isotropic =    30.6870   Anisotropy =     9.9587

     14  H    Isotropic =    30.4391   Anisotropy =     8.3213

     15  H    Isotropic =    27.0440   Anisotropy =     5.2182

     16  H    Isotropic =    30.6883   Anisotropy =     9.9577

     17  H    Isotropic =    29.7756   Anisotropy =     6.1258

     18  H    Isotropic =    30.4415   Anisotropy =     8.3295

     19  H    Isotropic =    24.0355   Anisotropy =    10.2904

     20  H    Isotropic =    23.8913   Anisotropy =     6.1001

     21  H    Isotropic =    24.2525   Anisotropy =     4.9884

     22  H    Isotropic =    23.6147   Anisotropy =    10.6323

 The electronic state is 1-A.
 Alpha  occ. eigenvalues -- -485.36767 -63.35236 -57.17185 -57.16948 -57.16935
 Alpha  occ. eigenvalues --  -19.65465 -10.61755 -10.60187 -10.59389 -10.55206
 Alpha  occ. eigenvalues --  -10.54845 -10.54689 -10.54164 -10.52886 -10.52885
 Alpha  occ. eigenvalues --   -9.01876  -6.84295  -6.83416  -6.83370  -2.87672
 Alpha  occ. eigenvalues --   -2.87361  -2.87312  -2.86493  -2.86492  -1.18938
 Alpha  occ. eigenvalues --   -0.97225  -0.90036  -0.88608  -0.84153  -0.80927
 Alpha  occ. eigenvalues --   -0.78800  -0.72652  -0.68960  -0.65705  -0.58572
 Alpha  occ. eigenvalues --   -0.57209  -0.55336  -0.53255  -0.52788  -0.50632
 Alpha  occ. eigenvalues --   -0.48217  -0.47474  -0.47386  -0.45355  -0.44727
 Alpha  occ. eigenvalues --   -0.42666  -0.42656  -0.39740  -0.38964  -0.38286
 Alpha  occ. eigenvalues --   -0.37325  -0.33980  -0.30249  -0.27635
 Alpha virt. eigenvalues --    0.01282   0.02771   0.04275   0.07093   0.09341
 Alpha virt. eigenvalues --    0.10699   0.11310   0.12257   0.12944   0.13863
 Alpha virt. eigenvalues --    0.14142   0.15325   0.16283   0.16292   0.17479

 Mulliken charges:
               1
     1  C   -0.432928
     2  C   -0.021616
     3  C   -0.432962
     4  O   -0.278841
     5  C    0.343390
     6  C   -0.228490
     7  C   -0.187294
     8  C   -0.188388
     9  C   -0.141137
    10  C   -0.085197
    11  Br  -0.110633
    12  H    0.148617
    13  H    0.157245
    14  H    0.166564
    15  H    0.146087
    16  H    0.157225
    17  H    0.148692
    18  H    0.166561
    19  H    0.175777
    20  H    0.163072
    21  H    0.162363
    22  H    0.171889
 Sum of Mulliken charges =  -0.00000

 Dipole moment (field-independent basis, Debye):
    X=             -3.2665    Y=              1.3936    Z=              0.0015  Tot=              3.5514
 Quadrupole moment (field-independent basis, Debye-Ang):
   XX=            -68.9804   YY=            -72.9955   ZZ=            -81.8761
   XY=              4.0428   XZ=              0.0011   YZ=             -0.0007

 Normal termination of Gaussian 16 at Tue Sep 17 11:06:36 2024.
