 Gaussian 16, Revision C.02,

 ----------------------------------------------------------------------
 #p B3LYP/6-31G(d,p) EmpiricalDispersion=GD3BJ opt freq scf(xqc,tight)
 integral(grid=ultrafine)
 ----------------------------------------------------------------------

 ----------------------------------
 opt-freq conformers_unique/conf_ai
 ----------------------------------
 Symbolic Z-matrix:
 Charge =  0 Multiplicity = 1

 SCF Done:  E(RB3LYP) =  -3150.42122478     A.U. after   14 cycles
 SCF Done:  E(RB3LYP) =  -3150.42248068     A.U. after   11 cycles
 SCF Done:  E(RB3LYP) =  -3150.42260355     A.U. after   11 cycles
 SCF Done:  E(RB3LYP) =  -3150.42270220     A.U. after   10 cycles
 SCF Done:  E(RB3LYP) =  -3150.42275127     A.U. after   11 cycles
 SCF Done:  E(RB3LYP) =  -3150.42278923     A.U. after   10 cycles
 SCF Done:  E(RB3LYP) =  -3150.42284646     A.U. after   11 cycles
 SCF Done:  E(RB3LYP) =  -3150.42288144     A.U. after   11 cycles
 SCF Done:  E(RB3LYP) =  -3150.42290068     A.U. after   11 cycles
 SCF Done:  E(RB3LYP) =  -3150.42292496     A.U. after   10 cycles
 SCF Done:  E(RB3LYP) =  -3150.42293997     A.U. after   11 cycles
 SCF Done:  E(RB3LYP) =  -3150.42294354     A.U. after   10 cycles
 SCF Done:  E(RB3LYP) =  -3150.42294229     A.U. after    9 cycles
 SCF Done:  E(RB3LYP) =  -3150.42294374     A.U. after    9 cycles
 Optimization completed.
    -- Stationary point found.
 Normal termination of Gaussian 16 at Tue Sep 17 09:56:45 2024.

 ----------------------------------------------------------------------
 #P Geom=AllCheck Guess=TCheck SCRF=Check GenChk RB3LYP/6-31G(d,p) Freq
 ----------------------------------------------------------------------

 Structure from the checkpoint file:  "smiles_00034_conf_8.chk"
 ----------------------------------
 opt-freq conformers_unique/conf_ai
 ----------------------------------
 Charge =  0 Multiplicity = 1

 SCF Done:  E(RB3LYP) =  -3150.42294374     A.U. after    1 cycles

                      1                      2                      3
                      A                      A                      A
 Frequencies --     19.5600                41.3078                56.3707
 Red. masses --      4.0771                 2.6664                 2.7295
 Frc consts  --      0.0009                 0.0027                 0.0051
 IR Inten    --      0.1095                 0.2031                 0.0319

                      4                      5                      6
                      A                      A                      A
 Frequencies --     73.8496                96.3827               116.2974
 Red. masses --      3.1095                 3.7993                 2.0437
 Frc consts  --      0.0100                 0.0208                 0.0163
 IR Inten    --      0.4511                 0.5662                 1.5026

                      7                      8                      9
                      A                      A                      A
 Frequencies --    154.3923               176.5326               200.8504
 Red. masses --      5.1334                 4.9451                 3.7350
 Frc consts  --      0.0721                 0.0908                 0.0888
 IR Inten    --      2.4136                 0.1935                 2.1283

                     10                     11                     12
                      A                      A                      A
 Frequencies --    238.7841               259.9212               267.2942
 Red. masses --      1.8965                 1.3409                 1.9030
 Frc consts  --      0.0637                 0.0534                 0.0801
 IR Inten    --      1.5559                 2.0484                 0.3613

                     13                     14                     15
                      A                      A                      A
 Frequencies --    286.7256               310.8410               342.7348
 Red. masses --      4.1694                 3.6900                 3.1419
 Frc consts  --      0.2020                 0.2101                 0.2174
 IR Inten    --      1.8909                 0.9407                 4.1733

                     16                     17                     18
                      A                      A                      A
 Frequencies --    366.2707               434.2847               454.2824
 Red. masses --      4.7919                 3.3907                 3.3132
 Frc consts  --      0.3788                 0.3768                 0.4029
 IR Inten    --      0.1259                12.2947                 3.5694

                     19                     20                     21
                      A                      A                      A
 Frequencies --    503.7369               532.2632               635.6711
 Red. masses --      4.2037                 4.8662                 5.3764
 Frc consts  --      0.6285                 0.8123                 1.2800
 IR Inten    --      2.6525                 1.3096                 9.2690

                     22                     23                     24
                      A                      A                      A
 Frequencies --    670.8502               698.0203               736.0994
 Red. masses --      6.0837                 3.3265                 2.9839
 Frc consts  --      1.6131                 0.9549                 0.9526
 IR Inten    --     13.8246                11.7790                21.3636

                     25                     26                     27
                      A                      A                      A
 Frequencies --    800.6467               813.1976               824.2789
 Red. masses --      1.4286                 1.2871                 1.1117
 Frc consts  --      0.5396                 0.5015                 0.4450
 IR Inten    --     32.1172                 5.9607                 0.0680

                     28                     29                     30
                      A                      A                      A
 Frequencies --    845.8259               893.7808               918.3740
 Red. masses --      2.3804                 2.6570                 1.6439
 Frc consts  --      1.0034                 1.2506                 0.8169
 IR Inten    --      5.7521                14.6527                 9.5006

                     31                     32                     33
                      A                      A                      A
 Frequencies --    937.5235               963.2573               996.1256
 Red. masses --      1.3453                 2.1193                 1.3335
 Frc consts  --      0.6967                 1.1586                 0.7796
 IR Inten    --      1.9027                10.7168                 2.5446

                     34                     35                     36
                      A                      A                      A
 Frequencies --   1011.2186              1018.9551              1053.5278
 Red. masses --      3.0165                 5.1063                 3.8553
 Frc consts  --      1.8174                 3.1237                 2.5212
 IR Inten    --     13.1232                 0.6699                27.5373

                     37                     38                     39
                      A                      A                      A
 Frequencies --   1089.6937              1098.6652              1115.5103
 Red. masses --      5.1334                 2.0845                 2.0392
 Frc consts  --      3.5914                 1.4825                 1.4951
 IR Inten    --    218.2317                11.4305                41.5542

                     40                     41                     42
                      A                      A                      A
 Frequencies --   1124.6212              1143.2442              1154.6089
 Red. masses --      1.6820                 5.2192                 2.2569
 Frc consts  --      1.2534                 4.0191                 1.7727
 IR Inten    --     54.3601               185.9756                14.2273

                     43                     44                     45
                      A                      A                      A
 Frequencies --   1192.0269              1195.2228              1204.1966
 Red. masses --      1.4456                 1.1679                 1.8135
 Frc consts  --      1.2102                 0.9830                 1.5494
 IR Inten    --      7.4729                 8.0176                21.4721

                     46                     47                     48
                      A                      A                      A
 Frequencies --   1224.4931              1302.7744              1314.8171
 Red. masses --      2.4899                 1.1037                 1.4762
 Frc consts  --      2.1996                 1.1036                 1.5036
 IR Inten    --    104.1626                 0.3028                 5.2222

                     49                     50                     51
                      A                      A                      A
 Frequencies --   1339.0405              1351.8495              1364.4164
 Red. masses --      1.1093                 3.1969                 1.5327
 Frc consts  --      1.1719                 3.4422                 1.6811
 IR Inten    --      8.0260                30.8571               109.5916

                     52                     53                     54
                      A                      A                      A
 Frequencies --   1392.2136              1407.0717              1416.6122
 Red. masses --      1.2039                 1.2571                 1.2490
 Frc consts  --      1.3748                 1.4664                 1.4768
 IR Inten    --      6.3294                 6.8831                 2.5292

                     55                     56                     57
                      A                      A                      A
 Frequencies --   1429.4138              1447.9463              1464.1450
 Red. masses --      1.3105                 1.5242                 2.4572
 Frc consts  --      1.5776                 1.8828                 3.1036
 IR Inten    --     10.1751                23.8208                18.9052

                     58                     59                     60
                      A                      A                      A
 Frequencies --   1498.0604              1500.7650              1508.7157
 Red. masses --      1.0415                 1.0441                 1.0602
 Frc consts  --      1.3771                 1.3855                 1.4218
 IR Inten    --      4.2658                 3.2886                 1.2631

                     61                     62                     63
                      A                      A                      A
 Frequencies --   1515.3246              1516.5746              1528.4302
 Red. masses --      1.2479                 1.7695                 1.0717
 Frc consts  --      1.6882                 2.3979                 1.4751
 IR Inten    --      9.7088                13.7598                 4.6103

                     64                     65                     66
                      A                      A                      A
 Frequencies --   1543.5705              1628.8989              1653.3050
 Red. masses --      1.0857                 6.2355                 6.2849
 Frc consts  --      1.5241                 9.7479                10.1218
 IR Inten    --      1.1253                22.4747                10.8099

                     67                     68                     69
                      A                      A                      A
 Frequencies --   2996.9924              3003.9756              3049.4988
 Red. masses --      1.0717                 1.0782                 1.0502
 Frc consts  --      5.6716                 5.7324                 5.7542
 IR Inten    --      8.4464                87.6836                29.6352

                     70                     71                     72
                      A                      A                      A
 Frequencies --   3051.2220              3054.3768              3065.6342
 Red. masses --      1.0457                 1.0353                 1.0958
 Frc consts  --      5.7361                 5.6907                 6.0678
 IR Inten    --     19.2159                16.1586                25.9909

                     73                     74                     75
                      A                      A                      A
 Frequencies --   3095.1291              3119.3090              3130.3554
 Red. masses --      1.1068                 1.1009                 1.1024
 Frc consts  --      6.2472                 6.3112                 6.3647
 IR Inten    --     19.1649                30.6024                29.7612

                     76                     77                     78
                      A                      A                      A
 Frequencies --   3132.9987              3151.6422              3193.3362
 Red. masses --      1.1036                 1.1022                 1.0887
 Frc consts  --      6.3821                 6.4502                 6.5409
 IR Inten    --     31.3345                25.8265                10.2923

                     79                     80                     81
                      A                      A                      A
 Frequencies --   3223.0215              3224.1658              3238.3397
 Red. masses --      1.0934                 1.0916                 1.0924
 Frc consts  --      6.6922                 6.6860                 6.7499
 IR Inten    --      3.1752                 0.4238                 2.8381

 - Thermochemistry -
 -------------------
 Temperature   298.150 Kelvin.  Pressure   1.00000 Atm.
 Atom     1 has atomic number  6 and mass  12.00000

 Molecular mass:   258.02554 amu.
 Principal axes and moments of inertia in atomic units:
                           1         2         3
     Eigenvalues --  1701.938988164.811829129.49109
           X            0.99989  -0.01437  -0.00335
           Y            0.01429   0.99963  -0.02312
           Z            0.00368   0.02307   0.99973
 This molecule is an asymmetric top.
 Rotational symmetry number  1.
 Warning -- assumption of classical behavior for rotation
           may cause significant error
 Rotational temperatures (Kelvin)      0.05089     0.01061     0.00949
 Rotational constants (GHZ):           1.06040     0.22104     0.19768
 Zero-point vibrational energy     634895.6 (Joules/Mol)
                                  151.74370 (Kcal/Mol)
 Warning -- explicit consideration of  20 degrees of freedom as
           vibrations may cause significant error
 Vibrational temperatures:     28.14    59.43    81.10   106.25   138.67
          (Kelvin)            167.33   222.14   253.99   288.98   343.56
                              373.97   384.58   412.53   447.23   493.12
                              526.98   624.84   653.61   724.77   765.81
                              914.59   965.20  1004.30  1059.08  1151.95
                             1170.01  1185.95  1216.95  1285.95  1321.34
                             1348.89  1385.91  1433.20  1454.92  1466.05
                             1515.79  1567.83  1580.73  1604.97  1618.08
                             1644.87  1661.22  1715.06  1719.66  1732.57
                             1761.77  1874.40  1891.73  1926.58  1945.01
                             1963.09  2003.08  2024.46  2038.19  2056.61
                             2083.27  2106.58  2155.37  2159.27  2170.71
                             2180.21  2182.01  2199.07  2220.85  2343.62
                             2378.74  4312.00  4322.05  4387.55  4390.03
                             4394.57  4410.76  4453.20  4487.99  4503.88
                             4507.69  4534.51  4594.50  4637.21  4638.86
                             4659.25

 Zero-point correction=                           0.241819 (Hartree/Particle)
 Thermal correction to Energy=                    0.256639
 Thermal correction to Enthalpy=                  0.257583
 Thermal correction to Gibbs Free Energy=         0.197301
 Sum of electronic and zero-point Energies=          -3150.181125
 Sum of electronic and thermal Energies=             -3150.166305
 Sum of electronic and thermal Enthalpies=           -3150.165361
 Sum of electronic and thermal Free Energies=        -3150.225643

                     E (Thermal)             CV                S
                      KCal/Mol        Cal/Mol-Kelvin    Cal/Mol-Kelvin
 Total                  161.043             53.682            126.874
 Electronic               0.000              0.000              0.000
 Translational            0.889              2.981             42.543
 Rotational               0.889              2.981             33.206
 Vibrational            159.266             47.721             51.125
 Vibration     1          0.593              1.986              6.678
 Vibration     2          0.594              1.981              5.195
 Vibration     3          0.596              1.975              4.580
 Vibration     4          0.599              1.966              4.048
 Vibration     5          0.603              1.952              3.526
 Vibration     6          0.608              1.936              3.161
 Vibration     7          0.620              1.898              2.617
 Vibration     8          0.628              1.871              2.365
 Vibration     9          0.638              1.839              2.125
 Vibration    10          0.657              1.781              1.812
 Vibration    11          0.668              1.746              1.662
 Vibration    12          0.672              1.733              1.614
 Vibration    13          0.684              1.698              1.493
 Vibration    14          0.700              1.653              1.358
 Vibration    15          0.722              1.590              1.199
 Vibration    16          0.739              1.542              1.095
 Vibration    17          0.795              1.396              0.845
 Vibration    18          0.813              1.351              0.783
 Vibration    19          0.859              1.242              0.649
 Vibration    20          0.887              1.179              0.582

                           ! Non-Optimized Parameters !
 Normal termination of Gaussian 16 at Tue Sep 17 10:00:16 2024.

 ----------------------------------------------------------------------
 #p M062X/def2tzvp geom=check guess=read scf(xqc,tight) integral(grid=u
 ltrafine) scrf(SMD, solvent=1,4-Dioxane) polar prop=efg volume
 ----------------------------------------------------------------------

 ---
 spe
 ---
 Structure from the checkpoint file:  "smiles_00034_conf_8.chk"
 Charge =  0 Multiplicity = 1

 SCF Done:  E(RM062X) =  -3152.81230142     A.U. after   11 cycles

 The electronic state is 1-A.
 Alpha  occ. eigenvalues -- -485.37399 -63.35878 -57.17822 -57.17588 -57.17582
 Alpha  occ. eigenvalues --  -19.63620 -19.63114 -10.64453 -10.60369 -10.58256
 Alpha  occ. eigenvalues --  -10.57808 -10.55931 -10.55534 -10.55452 -10.55272
 Alpha  occ. eigenvalues --  -10.54706 -10.52519 -10.51915  -9.02521  -6.84923
 Alpha  occ. eigenvalues --   -6.84056  -6.84036  -2.88299  -2.87986  -2.87962
 Alpha  occ. eigenvalues --   -2.87153  -2.87153  -1.19574  -1.13132  -0.98118
 Alpha  occ. eigenvalues --   -0.90415  -0.87822  -0.84966  -0.84448  -0.81574
 Alpha  occ. eigenvalues --   -0.76295  -0.71830  -0.69291  -0.68786  -0.65119
 Alpha  occ. eigenvalues --   -0.59812  -0.59225  -0.58858  -0.54808  -0.53413
 Alpha  occ. eigenvalues --   -0.52850  -0.51517  -0.50510  -0.48361  -0.48063
 Alpha  occ. eigenvalues --   -0.46918  -0.45788  -0.44825  -0.44723  -0.43667
 Alpha  occ. eigenvalues --   -0.42685  -0.41555  -0.40458  -0.40061  -0.37901
 Alpha  occ. eigenvalues --   -0.37259  -0.35338  -0.34825  -0.34268  -0.31503
 Alpha  occ. eigenvalues --   -0.29824
 Alpha virt. eigenvalues --    0.00477   0.01046   0.03748   0.07180   0.08953
 Alpha virt. eigenvalues --    0.09798   0.10010   0.11099   0.11758   0.12538
 Alpha virt. eigenvalues --    0.13334   0.13681   0.14361   0.14928   0.15318

 Mulliken charges:
               1
     1  C   -0.470980
     2  C   -0.088478
     3  O   -0.328905
     4  C    0.192954
     5  O   -0.329656
     6  C   -0.159816
     7  C   -0.415049
     8  C    0.020432
     9  C   -0.199256
    10  C   -0.140412
    11  C   -0.178141
    12  C    0.073035
    13  Br  -0.116093
    14  C   -0.231130
    15  H    0.154031
    16  H    0.154964
    17  H    0.151372
    18  H    0.144478
    19  H    0.154392
    20  H    0.141978
    21  H    0.167647
    22  H    0.137548
    23  H    0.147884
    24  H    0.147639
    25  H    0.145860
    26  H    0.178890
    27  H    0.166367
    28  H    0.178669
    29  H    0.199777
 Sum of Mulliken charges =  -0.00000

 Dipole moment (field-independent basis, Debye):
    X=              2.5803    Y=              1.0738    Z=              0.5197  Tot=              2.8427
 Quadrupole moment (field-independent basis, Debye-Ang):
   XX=            -94.0945   YY=            -93.1669   ZZ=            -96.5228
   XY=             -1.1860   XZ=             -3.3052   YZ=              0.0929

  Exact polarizability:     228.025       9.910     173.148      -2.853      14.869     134.999
 Approx polarizability:     218.543      12.090     192.880      -3.720      22.089     160.190

 Normal termination of Gaussian 16 at Tue Sep 17 11:25:50 2024.
 Gaussian 16:  ES64L-G16RevC.02  7-Dec-2021

 ----------------------------------------------------------------------
 #p M062X/def2tzvp geom=check guess=read scf(xqc,tight) integral(grid=u
 ltrafine) scrf(SMD, solvent=1,4-Dioxane) nmr=giao
 ----------------------------------------------------------------------

 ---
 spe
 ---
 Structure from the checkpoint file:  "smiles_00034_conf_8.chk"
 Charge =  0 Multiplicity = 1

                         Standard orientation:
 ---------------------------------------------------------------------
 Center     Atomic      Atomic             Coordinates (Angstroms)
 Number     Number       Type             X           Y           Z
 ---------------------------------------------------------------------
      1          6           0        3.032323   -2.146658    1.333470
      2          6           0        1.637723   -1.934793    0.759851
      3          8           0        1.667711   -1.461675   -0.596640
      4          6           0        1.608669   -0.061970   -0.768736
      5          8           0        2.708148    0.614154   -0.214253
      6          6           0        3.926712    0.408256   -0.930780
      7          6           0        5.032084    1.144924   -0.199658
      8          6           0        0.334499    0.549471   -0.205440
      9          6           0        0.337743    1.772513    0.467479
     10          6           0       -0.860069    2.316401    0.933348
     11          6           0       -2.069064    1.653092    0.730941
     12          6           0       -2.055302    0.434638    0.054574
     13         35           0       -3.704657   -0.492971   -0.228806
     14          6           0       -0.873358   -0.124686   -0.415411
     15          1           0        3.625510   -2.785267    0.672103
     16          1           0        3.548380   -1.192878    1.459112
     17          1           0        2.965826   -2.636001    2.311346
     18          1           0        1.092619   -2.883345    0.723245
     19          1           0        1.061709   -1.245945    1.387743
     20          1           0        1.616316    0.055701   -1.863257
     21          1           0        4.141999   -0.664851   -0.995947
     22          1           0        3.813250    0.788874   -1.957614
     23          1           0        5.980421    1.033881   -0.733902
     24          1           0        4.799086    2.210769   -0.122841
     25          1           0        5.157594    0.748627    0.812057
     26          1           0        1.279316    2.283095    0.624172
     27          1           0       -0.854830    3.265266    1.460874
     28          1           0       -3.003831    2.067956    1.088812
     29          1           0       -0.879002   -1.078870   -0.928376
 ---------------------------------------------------------------------

 SCF Done:  E(RM062X) =  -3152.81230142     A.U. after    1 cycles
