 Gaussian 16, Revision C.02,

 ----------------------------------------------------------------------
 #p B3LYP/6-31G(d,p) EmpiricalDispersion=GD3BJ opt freq scf(xqc,tight)
 integral(grid=ultrafine)
 ----------------------------------------------------------------------

 ----------------------------------
 opt-freq conformers_unique/conf_ac
 ----------------------------------
 Symbolic Z-matrix:
 Charge =  0 Multiplicity = 1

 SCF Done:  E(RB3LYP) =  -3275.18902809     A.U. after   15 cycles
 SCF Done:  E(RB3LYP) =  -3275.19061328     A.U. after   12 cycles
 SCF Done:  E(RB3LYP) =  -3275.19072127     A.U. after   11 cycles
 SCF Done:  E(RB3LYP) =  -3275.19062641     A.U. after   12 cycles
 SCF Done:  E(RB3LYP) =  -3275.19078300     A.U. after   11 cycles
 SCF Done:  E(RB3LYP) =  -3275.19079998     A.U. after   10 cycles
 SCF Done:  E(RB3LYP) =  -3275.19082689     A.U. after   11 cycles
 SCF Done:  E(RB3LYP) =  -3275.19083946     A.U. after   11 cycles
 SCF Done:  E(RB3LYP) =  -3275.19083151     A.U. after   11 cycles
 SCF Done:  E(RB3LYP) =  -3275.19089033     A.U. after   11 cycles
 SCF Done:  E(RB3LYP) =  -3275.19174340     A.U. after   12 cycles
 SCF Done:  E(RB3LYP) =  -3275.19186293     A.U. after   11 cycles
 SCF Done:  E(RB3LYP) =  -3275.19193829     A.U. after   11 cycles
 SCF Done:  E(RB3LYP) =  -3275.19198914     A.U. after   10 cycles
 SCF Done:  E(RB3LYP) =  -3275.19199613     A.U. after   10 cycles
 SCF Done:  E(RB3LYP) =  -3275.19199641     A.U. after    8 cycles
 SCF Done:  E(RB3LYP) =  -3275.19199647     A.U. after    7 cycles
 Optimization completed.
    -- Stationary point found.
 Normal termination of Gaussian 16 at Tue Sep 17 10:00:20 2024.

 ----------------------------------------------------------------------
 #P Geom=AllCheck Guess=TCheck SCRF=Check GenChk RB3LYP/6-31G(d,p) Freq
 ----------------------------------------------------------------------

 Structure from the checkpoint file:  "smiles_00085_conf_2.chk"
 ----------------------------------
 opt-freq conformers_unique/conf_ac
 ----------------------------------
 Charge =  0 Multiplicity = 1

 SCF Done:  E(RB3LYP) =  -3275.19199647     A.U. after    1 cycles

                      1                      2                      3
                      A                      A                      A
 Frequencies --     30.3488                39.0911                75.6500
 Red. masses --      6.2725                 6.3053                 4.5262
 Frc consts  --      0.0034                 0.0057                 0.0153
 IR Inten    --      2.5527                 1.5309                 0.1847

                      4                      5                      6
                      A                      A                      A
 Frequencies --     90.0181               109.4533               114.0517
 Red. masses --      4.9219                 8.0245                 2.0006
 Frc consts  --      0.0235                 0.0566                 0.0153
 IR Inten    --      1.2518                 0.3504                 0.0238

                      7                      8                      9
                      A                      A                      A
 Frequencies --    127.2573               133.1200               170.1767
 Red. masses --      1.1326                 1.4282                 5.1177
 Frc consts  --      0.0108                 0.0149                 0.0873
 IR Inten    --      0.4446                 0.0513                 9.3049

                     10                     11                     12
                      A                      A                      A
 Frequencies --    204.5569               220.1766               223.2387
 Red. masses --      4.0491                 6.0151                 6.7448
 Frc consts  --      0.0998                 0.1718                 0.1980
 IR Inten    --      0.0479                 2.9013                 0.6114

                     13                     14                     15
                      A                      A                      A
 Frequencies --    263.3238               291.9384               345.7666
 Red. masses --      9.2867                 5.5812                 5.0811
 Frc consts  --      0.3794                 0.2803                 0.3579
 IR Inten    --      2.2532                11.5751                 9.4886

                     16                     17                     18
                      A                      A                      A
 Frequencies --    352.2905               393.0728               474.9274
 Red. masses --      6.6009                 6.4640                 9.2467
 Frc consts  --      0.4827                 0.5884                 1.2288
 IR Inten    --     16.0419                 0.8395                 8.0073

                     19                     20                     21
                      A                      A                      A
 Frequencies --    506.4071               540.2276               568.4402
 Red. masses --      6.1548                 6.7255                 6.7293
 Frc consts  --      0.9300                 1.1565                 1.2811
 IR Inten    --      0.0927                18.4080                 0.1135

                     22                     23                     24
                      A                      A                      A
 Frequencies --    705.3760               744.0069               748.2949
 Red. masses --      6.2393                 8.9988                 6.8377
 Frc consts  --      1.8290                 2.9349                 2.2558
 IR Inten    --     10.0655                92.0646                23.7253

                     25                     26                     27
                      A                      A                      A
 Frequencies --    787.4638               795.6665               843.5124
 Red. masses --      4.3153                 7.4158                 6.0633
 Frc consts  --      1.5766                 2.7661                 2.5418
 IR Inten    --     12.8170                 0.2288                 8.0422

                     28                     29                     30
                      A                      A                      A
 Frequencies --    901.0367               934.7007               960.7852
 Red. masses --      6.1787                 1.5698                 1.4153
 Frc consts  --      2.9555                 0.8080                 0.7698
 IR Inten    --      6.0498                11.8149                 1.7049

                     31                     32                     33
                      A                      A                      A
 Frequencies --   1008.6651              1013.3718              1044.0939
 Red. masses --      7.5247                 6.9243                 8.3899
 Frc consts  --      4.5106                 4.1895                 5.3887
 IR Inten    --     25.9711                 4.4646                45.2378

                     34                     35                     36
                      A                      A                      A
 Frequencies --   1122.5843              1179.3567              1180.4332
 Red. masses --      1.4595                 1.2777                 1.2762
 Frc consts  --      1.0836                 1.0471                 1.0478
 IR Inten    --     12.0546                 0.8344                 0.8484

                     37                     38                     39
                      A                      A                      A
 Frequencies --   1182.9517              1184.4627              1218.1376
 Red. masses --      1.7184                 2.8971                 1.5280
 Frc consts  --      1.4168                 2.3947                 1.3359
 IR Inten    --     57.0949                30.9644                21.2560

                     40                     41                     42
                      A                      A                      A
 Frequencies --   1227.8114              1277.2441              1324.6323
 Red. masses --      2.3424                 3.9530                10.6602
 Frc consts  --      2.0805                 3.7995                11.0206
 IR Inten    --     73.0769               664.5588                 2.0380

                     43                     44                     45
                      A                      A                      A
 Frequencies --   1343.3738              1436.5508              1466.7059
 Red. masses --      4.9667                 3.3672                 2.9746
 Frc consts  --      5.2809                 4.0941                 3.7702
 IR Inten    --    365.0585                47.0453                 7.9482

                     46                     47                     48
                      A                      A                      A
 Frequencies --   1482.5970              1486.1988              1495.2526
 Red. masses --      1.2911                 1.4363                 1.0461
 Frc consts  --      1.6721                 1.8692                 1.3781
 IR Inten    --     21.4803                26.8259                 6.8182

                     49                     50                     51
                      A                      A                      A
 Frequencies --   1496.7821              1507.2771              1509.8283
 Red. masses --      1.0464                 1.0577                 1.0512
 Frc consts  --      1.3812                 1.4157                 1.4118
 IR Inten    --      6.7842                 5.1072                 8.5080

                     52                     53                     54
                      A                      A                      A
 Frequencies --   1606.0938              1616.7111              1801.4141
 Red. masses --      6.2849                 9.7574                11.6624
 Frc consts  --      9.5519                15.0262                22.2979
 IR Inten    --    118.2067                10.9112               168.9064

                     55                     56                     57
                      A                      A                      A
 Frequencies --   1838.6094              3066.5771              3067.7970
 Red. masses --     12.0456                 1.0302                 1.0297
 Frc consts  --     23.9915                 5.7079                 5.7096
 IR Inten    --    192.6472                35.8677                32.2305

                     58                     59                     60
                      A                      A                      A
 Frequencies --   3143.5720              3146.2838              3179.9320
 Red. masses --      1.1069                 1.1071                 1.1073
 Frc consts  --      6.4449                 6.4569                 6.5972
 IR Inten    --     19.0095                17.8877                13.8930

                     61                     62                     63
                      A                      A                      A
 Frequencies --   3183.9655              3249.9277              3259.1613
 Red. masses --      1.1068                 1.0929                 1.0926
 Frc consts  --      6.6109                 6.8009                 6.8381
 IR Inten    --     12.9345                 5.3477                 2.3606

 - Thermochemistry -
 -------------------
 Temperature   298.150 Kelvin.  Pressure   1.00000 Atm.
 Atom     1 has atomic number  6 and mass  12.00000

 Molecular mass:   272.96367 amu.
 Principal axes and moments of inertia in atomic units:
                           1         2         3
     Eigenvalues --  4624.937495404.64889**********
           X            0.91471   0.40411  -0.00001
           Y           -0.40411   0.91471   0.00000
           Z            0.00001   0.00000   1.00000
 This molecule is an asymmetric top.
 Rotational symmetry number  1.
 Warning -- assumption of classical behavior for rotation
           may cause significant error
 Rotational temperatures (Kelvin)      0.01873     0.01603     0.00866
 Rotational constants (GHZ):           0.39022     0.33392     0.18035
 Zero-point vibrational energy     430911.2 (Joules/Mol)
                                  102.99026 (Kcal/Mol)
 Warning -- explicit consideration of  21 degrees of freedom as
           vibrations may cause significant error
 Vibrational temperatures:     43.67    56.24   108.84   129.52   157.48
          (Kelvin)            164.09   183.09   191.53   244.85   294.31
                              316.78   321.19   378.86   420.03   497.48
                              506.87   565.54   683.31   728.61   777.27
                              817.86  1014.88  1070.46  1076.63  1132.98
                             1144.79  1213.63  1296.39  1344.83  1382.36
                             1451.24  1458.02  1502.22  1615.15  1696.83
                             1698.38  1702.00  1704.18  1752.63  1766.55
                             1837.67  1905.85  1932.82  2066.88  2110.26
                             2133.13  2138.31  2151.34  2153.54  2168.64
                             2172.31  2310.81  2326.09  2591.83  2645.35
                             4412.12  4413.88  4522.90  4526.80  4575.21
                             4581.02  4675.92  4689.21

 Zero-point correction=                           0.164125 (Hartree/Particle)
 Thermal correction to Energy=                    0.178988
 Thermal correction to Enthalpy=                  0.179932
 Thermal correction to Gibbs Free Energy=         0.119322
 Sum of electronic and zero-point Energies=          -3275.027871
 Sum of electronic and thermal Energies=             -3275.013009
 Sum of electronic and thermal Enthalpies=           -3275.012064
 Sum of electronic and thermal Free Energies=        -3275.072675

                     E (Thermal)             CV                S
                      KCal/Mol        Cal/Mol-Kelvin    Cal/Mol-Kelvin
 Total                  112.317             51.143            127.565
 Electronic               0.000              0.000              0.000
 Translational            0.889              2.981             42.711
 Rotational               0.889              2.981             33.880
 Vibrational            110.539             45.182             50.974
 Vibration     1          0.594              1.984              5.806
 Vibration     2          0.594              1.981              5.305
 Vibration     3          0.599              1.965              4.001
 Vibration     4          0.602              1.956              3.660
 Vibration     5          0.606              1.942              3.279
 Vibration     6          0.607              1.938              3.199
 Vibration     7          0.611              1.926              2.987
 Vibration     8          0.613              1.920              2.900
 Vibration     9          0.625              1.879              2.434
 Vibration    10          0.640              1.833              2.092
 Vibration    11          0.647              1.810              1.958
 Vibration    12          0.649              1.806              1.933
 Vibration    13          0.670              1.740              1.640
 Vibration    14          0.687              1.689              1.463
 Vibration    15          0.724              1.584              1.185
 Vibration    16          0.729              1.571              1.156
 Vibration    17          0.760              1.485              0.988
 Vibration    18          0.832              1.306              0.724
 Vibration    19          0.862              1.236              0.642
 Vibration    20          0.895              1.161              0.565
 Vibration    21          0.924              1.100              0.507

                           ! Non-Optimized Parameters !
 Normal termination of Gaussian 16 at Tue Sep 17 10:01:52 2024.

 ----------------------------------------------------------------------
 #p M062X/def2tzvp geom=check guess=read scf(xqc,tight) integral(grid=u
 ltrafine) scrf(SMD, solvent=1,4-Dioxane) polar prop=efg volume
 ----------------------------------------------------------------------

 ---
 spe
 ---
 Structure from the checkpoint file:  "smiles_00085_conf_2.chk"
 Charge =  0 Multiplicity = 1

 SCF Done:  E(RM062X) =  -3277.63776362     A.U. after   12 cycles

  Exact polarizability:     203.445      -5.545     198.117      -0.001       0.006      92.996
 Approx polarizability:     206.322     -10.767     213.378       0.000       0.013     115.778

 Normal termination of Gaussian 16 at Tue Sep 17 10:49:22 2024.
 Gaussian 16:  ES64L-G16RevC.02  7-Dec-2021

 ----------------------------------------------------------------------
 #p M062X/def2tzvp geom=check guess=read scf(xqc,tight) integral(grid=u
 ltrafine) scrf(SMD, solvent=1,4-Dioxane) nmr=giao
 ----------------------------------------------------------------------

 ---
 spe
 ---
 Structure from the checkpoint file:  "smiles_00085_conf_2.chk"
 Charge =  0 Multiplicity = 1

                         Standard orientation:
 ---------------------------------------------------------------------
 Center     Atomic      Atomic             Coordinates (Angstroms)
 Number     Number       Type             X           Y           Z
 ---------------------------------------------------------------------
      1          6           0        2.549847    4.154411   -0.000234
      2          8           0        2.084086    2.795193   -0.000319
      3          6           0        0.738178    2.655435    0.000007
      4          8           0       -0.036580    3.581533    0.000276
      5          6           0        0.345824    1.200805   -0.000008
      6          6           0        1.318081    0.192773    0.000051
      7          6           0        0.878058   -1.126745    0.000033
      8         35           0        2.142204   -2.546896    0.000146
      9          6           0       -0.481834   -1.404388   -0.000074
     10          6           0       -1.361253   -0.314539   -0.000085
     11          6           0       -2.833520   -0.626256   -0.000228
     12          8           0       -3.262225   -1.764265   -0.001139
     13          8           0       -3.595707    0.470942    0.000703
     14          6           0       -5.011813    0.225645    0.000351
     15          7           0       -0.968874    0.960324   -0.000042
     16          1           0        3.637263    4.092609    0.000152
     17          1           0        2.192332    4.679706   -0.888757
     18          1           0        2.191667    4.679843    0.887932
     19          1           0        2.370303    0.439831    0.000104
     20          1           0       -0.873225   -2.413042   -0.000183
     21          1           0       -5.476485    1.210296    0.000916
     22          1           0       -5.301584   -0.340624    0.888612
     23          1           0       -5.301299   -0.339595   -0.888638
 ---------------------------------------------------------------------

 SCF Done:  E(RM062X) =  -3277.63776362     A.U. after    1 cycles

      1  C    Isotropic =   130.1823   Anisotropy =    72.9567

      2  O    Isotropic =   132.2302   Anisotropy =   173.3257

      3  C    Isotropic =     4.2660   Anisotropy =    92.8349

      4  O    Isotropic =  -152.9312   Anisotropy =   741.3735

      5  C    Isotropic =    13.4693   Anisotropy =   170.3917

      6  C    Isotropic =    31.0269   Anisotropy =   191.5792

      7  C    Isotropic =     8.3673   Anisotropy =   175.9320

      8  Br   Isotropic =  2019.6243   Anisotropy =  1295.6940

      9  C    Isotropic =    30.4639   Anisotropy =   196.0073

     10  C    Isotropic =    12.4229   Anisotropy =   172.5123

     11  C    Isotropic =    -0.2491   Anisotropy =   103.8947

     12  O    Isotropic =  -132.6118   Anisotropy =   694.3621

     13  O    Isotropic =   130.2427   Anisotropy =   190.7424

     14  C    Isotropic =   129.7765   Anisotropy =    73.6144

     15  N    Isotropic =  -149.6793   Anisotropy =   670.7041

     16  H    Isotropic =    27.9532   Anisotropy =     7.5393

     17  H    Isotropic =    27.8559   Anisotropy =     8.2111

     18  H    Isotropic =    27.8542   Anisotropy =     8.2075

     19  H    Isotropic =    22.6402   Anisotropy =    14.8082

     20  H    Isotropic =    22.4138   Anisotropy =    13.7713

     21  H    Isotropic =    27.8387   Anisotropy =     7.5762

     22  H    Isotropic =    27.8859   Anisotropy =     8.0557

     23  H    Isotropic =    27.8856   Anisotropy =     8.0545

 The electronic state is 1-A.
 Alpha  occ. eigenvalues -- -485.39455 -63.37926 -57.19877 -57.19635 -57.19622
 Alpha  occ. eigenvalues --  -19.68322 -19.68035 -19.62852 -19.62836 -14.78089
 Alpha  occ. eigenvalues --  -10.68686 -10.68666 -10.63597 -10.61684 -10.61559
 Alpha  occ. eigenvalues --  -10.59320 -10.58985 -10.58582 -10.58375  -9.04568
 Alpha  occ. eigenvalues --   -6.86996  -6.86097  -6.86054  -2.90374  -2.90053
 Alpha  occ. eigenvalues --   -2.90008  -2.89171  -2.89170  -1.24356  -1.24292
 Alpha  occ. eigenvalues --   -1.15140  -1.14968  -1.08831  -0.96521  -0.91584
 Alpha  occ. eigenvalues --   -0.86982  -0.84194  -0.82513  -0.76048  -0.74490
 Alpha  occ. eigenvalues --   -0.66737  -0.65775  -0.63176  -0.60930  -0.58699
 Alpha  occ. eigenvalues --   -0.58245  -0.57879  -0.57413  -0.56654  -0.55417
 Alpha  occ. eigenvalues --   -0.51628  -0.50767  -0.50041  -0.47864  -0.47720
 Alpha  occ. eigenvalues --   -0.47002  -0.46446  -0.44235  -0.43616  -0.41848
 Alpha  occ. eigenvalues --   -0.38713  -0.38694  -0.38418  -0.37483  -0.36415
 Alpha  occ. eigenvalues --   -0.35022  -0.34539  -0.33782
 Alpha virt. eigenvalues --   -0.04777  -0.04220   0.02077   0.04751   0.07874
 Alpha virt. eigenvalues --    0.08572   0.10303   0.10425   0.10943   0.11783
 Alpha virt. eigenvalues --    0.12663   0.13178   0.14609   0.15191   0.15647

 Mulliken charges:
               1
     1  C   -0.271684
     2  O   -0.274487
     3  C    0.324191
     4  O   -0.315849
     5  C    0.083993
     6  C   -0.134639
     7  C    0.038549
     8  Br  -0.059789
     9  C   -0.150952
    10  C    0.101873
    11  C    0.344757
    12  O   -0.363516
    13  O   -0.233683
    14  C   -0.276965
    15  N   -0.194523
    16  H    0.158376
    17  H    0.163542
    18  H    0.163542
    19  H    0.202062
    20  H    0.209715
    21  H    0.163402
    22  H    0.161043
    23  H    0.161042
 Sum of Mulliken charges =  -0.00000

 Dipole moment (field-independent basis, Debye):
    X=              2.2475    Y=              0.4731    Z=              0.0010  Tot=              2.2968
 Quadrupole moment (field-independent basis, Debye-Ang):
   XX=            -81.3906   YY=           -101.9404   ZZ=            -97.3370
   XY=              7.0768   XZ=             -0.0048   YZ=             -0.0067

 Normal termination of Gaussian 16 at Tue Sep 17 11:07:38 2024.
