 Gaussian 16, Revision C.02,

 ----------------------------------------------------------------------
 #p B3LYP/6-31G(d,p) EmpiricalDispersion=GD3BJ opt freq scf(xqc,tight)
 integral(grid=ultrafine)
 ----------------------------------------------------------------------

 ----------------------------------
 opt-freq conformers_unique/conf_ac
 ----------------------------------
 Symbolic Z-matrix:
 Charge =  0 Multiplicity = 1

 SCF Done:  E(RB3LYP) =  -3263.53204919     A.U. after   14 cycles
 SCF Done:  E(RB3LYP) =  -3263.53401237     A.U. after   14 cycles
 SCF Done:  E(RB3LYP) =  -3263.53482932     A.U. after   14 cycles
 SCF Done:  E(RB3LYP) =  -3263.53524936     A.U. after   12 cycles
 SCF Done:  E(RB3LYP) =  -3263.53544901     A.U. after   11 cycles
 SCF Done:  E(RB3LYP) =  -3263.53563922     A.U. after   12 cycles
 SCF Done:  E(RB3LYP) =  -3263.53577491     A.U. after   11 cycles
 SCF Done:  E(RB3LYP) =  -3263.53583530     A.U. after   11 cycles
 SCF Done:  E(RB3LYP) =  -3263.53584270     A.U. after   10 cycles
 SCF Done:  E(RB3LYP) =  -3263.53584458     A.U. after    8 cycles
 SCF Done:  E(RB3LYP) =  -3263.53584614     A.U. after    8 cycles
 SCF Done:  E(RB3LYP) =  -3263.53584692     A.U. after    8 cycles
 SCF Done:  E(RB3LYP) =  -3263.53584773     A.U. after    8 cycles
 SCF Done:  E(RB3LYP) =  -3263.53584802     A.U. after    8 cycles
 SCF Done:  E(RB3LYP) =  -3263.53584805     A.U. after    7 cycles
 Optimization completed.
    -- Stationary point found.
 Normal termination of Gaussian 16 at Tue Sep 17 09:57:49 2024.

 ----------------------------------------------------------------------
 #P Geom=AllCheck Guess=TCheck SCRF=Check GenChk RB3LYP/6-31G(d,p) Freq
 ----------------------------------------------------------------------

 Structure from the checkpoint file:  "smiles_00036_conf_2.chk"
 ----------------------------------
 opt-freq conformers_unique/conf_ac
 ----------------------------------
 Charge =  0 Multiplicity = 1

 SCF Done:  E(RB3LYP) =  -3263.53584805     A.U. after    1 cycles

 The electronic state is 1-A.
 Alpha  occ. eigenvalues -- -482.90688 -61.86794 -56.38842 -56.38440 -56.38432
 Alpha  occ. eigenvalues --  -19.17613 -19.16043 -10.24737 -10.24208 -10.24198
 Alpha  occ. eigenvalues --  -10.23909 -10.22599 -10.20833 -10.20023 -10.19872
 Alpha  occ. eigenvalues --  -10.19583 -10.19524 -10.19064 -10.18965 -10.18100
 Alpha  occ. eigenvalues --  -10.17527  -8.57794  -6.53147  -6.51904  -6.51845
 Alpha  occ. eigenvalues --   -2.64718  -2.64371  -2.64325  -2.63333  -2.63333
 Alpha  occ. eigenvalues --   -1.06422  -1.04573  -0.87609  -0.84449  -0.79698
 Alpha  occ. eigenvalues --   -0.77962  -0.74987  -0.73667  -0.71834  -0.69271
 Alpha  occ. eigenvalues --   -0.68267  -0.62349  -0.60382  -0.58395  -0.58027
 Alpha  occ. eigenvalues --   -0.53359  -0.51192  -0.49693  -0.47778  -0.47350
 Alpha  occ. eigenvalues --   -0.47180  -0.46156  -0.44970  -0.44893  -0.43936
 Alpha  occ. eigenvalues --   -0.42490  -0.41516  -0.41038  -0.38808  -0.37754
 Alpha  occ. eigenvalues --   -0.37378  -0.37081  -0.35602  -0.34804  -0.34264
 Alpha  occ. eigenvalues --   -0.32406  -0.31641  -0.30092  -0.28429  -0.27855
 Alpha  occ. eigenvalues --   -0.25656  -0.23825  -0.22432  -0.21311
 Alpha virt. eigenvalues --   -0.01825  -0.00900   0.00722   0.01747   0.02000
 Alpha virt. eigenvalues --    0.09470   0.10517   0.11169   0.12800   0.13200
 Alpha virt. eigenvalues --    0.13907   0.14629   0.15034   0.15578   0.16374

 Mulliken charges:
               1
     1  C   -0.078076
     2  O   -0.521176
     3  C    0.356069
     4  C   -0.137433
     5  C   -0.098950
     6  C   -0.112717
     7  C    0.312311
     8  O   -0.539854
     9  C   -0.087152
    10  C   -0.066037
    11  C    0.046000
    12  C   -0.083313
    13  C   -0.090801
    14  C   -0.082093
    15  C   -0.096896
    16  C    0.056098
    17  Br  -0.136510
    18  H    0.109612
    19  H    0.115361
    20  H    0.125525
    21  H    0.082814
    22  H    0.086598
    23  H    0.088786
    24  H    0.112463
    25  H    0.123132
    26  H    0.119976
    27  H    0.103682
    28  H    0.092209
    29  H    0.093387
    30  H    0.106982
 Sum of Mulliken charges =  -0.00000

 Dipole moment (field-independent basis, Debye):
    X=              0.2800    Y=             -0.9654    Z=              0.7316  Tot=              1.2433
 Quadrupole moment (field-independent basis, Debye-Ang):
   XX=            -98.3518   YY=           -106.0619   ZZ=           -108.2179
   XY=              7.1413   XZ=              1.0211   YZ=             -2.4941

  Exact polarizability:     205.784       4.781     162.655      15.466       3.142     127.408
 Approx polarizability:     313.140       2.186     265.896      26.845      17.136     205.679

                      1                      2                      3
                      A                      A                      A
 Frequencies --     27.0365                55.6597                62.9734
 Red. masses --      4.0490                 6.2517                 4.6866
 Frc consts  --      0.0017                 0.0114                 0.0110
 IR Inten    --      2.3058                 1.2527                 0.1699

                      4                      5                      6
                      A                      A                      A
 Frequencies --     76.2971               102.7641               134.2022
 Red. masses --      4.3746                 3.2283                 5.4917
 Frc consts  --      0.0150                 0.0201                 0.0583
 IR Inten    --      1.2786                 4.5944                 2.0004

                      7                      8                      9
                      A                      A                      A
 Frequencies --    144.1860               180.6031               196.7331
 Red. masses --      4.8214                 3.6493                 1.0655
 Frc consts  --      0.0591                 0.0701                 0.0243
 IR Inten    --      1.0593                 0.2121                 0.1045

                     10                     11                     12
                      A                      A                      A
 Frequencies --    202.2931               229.3545               271.8735
 Red. masses --      2.9344                 2.0077                 3.0362
 Frc consts  --      0.0708                 0.0622                 0.1322
 IR Inten    --      1.3994                 1.4008                 0.0459

                     13                     14                     15
                      A                      A                      A
 Frequencies --    284.4117               294.3855               330.4495
 Red. masses --      2.4785                 6.4199                 4.6337
 Frc consts  --      0.1181                 0.3278                 0.2981
 IR Inten    --      1.7440                 1.1406                 0.1847

                     16                     17                     18
                      A                      A                      A
 Frequencies --    353.4954               410.3487               436.8787
 Red. masses --      5.3573                 5.5840                 4.7748
 Frc consts  --      0.3944                 0.5540                 0.5369
 IR Inten    --      4.0058                 3.1080                 3.6057

                     19                     20                     21
                      A                      A                      A
 Frequencies --    465.3056               502.8375               528.4266
 Red. masses --      3.5437                 4.9891                 5.2171
 Frc consts  --      0.4520                 0.7432                 0.8583
 IR Inten    --      1.7189                 1.7426                 3.9336

                     22                     23                     24
                      A                      A                      A
 Frequencies --    565.6419               579.2594               625.9594
 Red. masses --      4.8212                 4.7548                 4.7259
 Frc consts  --      0.9088                 0.9400                 1.0910
 IR Inten    --      2.8867                 8.1951                 3.4527

                     25                     26                     27
                      A                      A                      A
 Frequencies --    652.8742               669.6643               713.2836
 Red. masses --      4.3771                 6.2191                 6.2751
 Frc consts  --      1.0993                 1.6432                 1.8810
 IR Inten    --      2.7064                 6.7945                 5.9190

                     28                     29                     30
                      A                      A                      A
 Frequencies --    741.2498               760.9427               775.9902
 Red. masses --      2.1086                 2.1276                 1.4282
 Frc consts  --      0.6826                 0.7259                 0.5067
 IR Inten    --      9.6431                20.2264                24.6221

                     31                     32                     33
                      A                      A                      A
 Frequencies --    787.6489               803.8722               868.4933
 Red. masses --      4.6943                 3.2740                 1.4610
 Frc consts  --      1.7159                 1.2465                 0.6493
 IR Inten    --      9.5890                23.7612                 0.8601

                     34                     35                     36
                      A                      A                      A
 Frequencies --    889.3007               947.4150               961.7809
 Red. masses --      1.4165                 4.2764                 1.2557
 Frc consts  --      0.6600                 2.2616                 0.6844
 IR Inten    --      0.1424                15.8932                 0.6204

                     37                     38                     39
                      A                      A                      A
 Frequencies --    963.0252               996.1227              1023.1243
 Red. masses --      1.4665                 1.2966                 7.4589
 Frc consts  --      0.8013                 0.7580                 4.6002
 IR Inten    --      1.8697                 0.0532                 9.3854

                     40                     41                     42
                      A                      A                      A
 Frequencies --   1053.0673              1056.7517              1083.2502
 Red. masses --      5.9105                 6.7279                 2.1231
 Frc consts  --      3.8618                 4.4267                 1.4678
 IR Inten    --     29.4284                28.1448                 4.5565

                     43                     44                     45
                      A                      A                      A
 Frequencies --   1115.4747              1135.7457              1148.7648
 Red. masses --      1.5963                 3.4220                 1.6209
 Frc consts  --      1.1703                 2.6007                 1.2603
 IR Inten    --     11.6471               181.8463                20.8276

                     46                     47                     48
                      A                      A                      A
 Frequencies --   1174.2863              1178.0353              1189.2575
 Red. masses --      1.2345                 1.2752                 1.0909
 Frc consts  --      1.0030                 1.0427                 0.9091
 IR Inten    --      3.2029                 0.9573                 0.1911

                     49                     50                     51
                      A                      A                      A
 Frequencies --   1194.8271              1212.5975              1223.1004
 Red. masses --      1.2042                 1.3894                 1.5000
 Frc consts  --      1.0129                 1.2037                 1.3221
 IR Inten    --      2.5219                 3.7779                 5.4939

                     52                     53                     54
                      A                      A                      A
 Frequencies --   1275.7536              1283.5944              1311.0585
 Red. masses --      1.8297                 2.1920                 2.3508
 Frc consts  --      1.7546                 2.1279                 2.3808
 IR Inten    --      1.9466               211.0777                11.2556

                     55                     56                     57
                      A                      A                      A
 Frequencies --   1320.5877              1335.5241              1363.1086
 Red. masses --      5.6514                 6.3785                 6.9395
 Frc consts  --      5.8069                 6.7031                 7.5970
 IR Inten    --     41.3873                 0.4561                13.5980

                     58                     59                     60
                      A                      A                      A
 Frequencies --   1469.5728              1476.4960              1486.3423
 Red. masses --      1.7242                 1.7031                 1.4958
 Frc consts  --      2.1939                 2.1875                 1.9470
 IR Inten    --     86.6621                37.7981                11.1542

                     61                     62                     63
                      A                      A                      A
 Frequencies --   1503.3761              1505.9786              1508.0910
 Red. masses --      1.1434                 1.6031                 1.0663
 Frc consts  --      1.5226                 2.1421                 1.4288
 IR Inten    --      7.6732                10.6713                13.0438

                     64                     65                     66
                      A                      A                      A
 Frequencies --   1517.0404              1522.7245              1523.7291
 Red. masses --      1.1934                 1.2399                 1.4095
 Frc consts  --      1.6182                 1.6938                 1.9281
 IR Inten    --     54.4450                 4.6457                46.4225

                     67                     68                     69
                      A                      A                      A
 Frequencies --   1537.6896              1618.8588              1637.5917
 Red. masses --      2.9024                 5.6261                 6.5974
 Frc consts  --      4.0434                 8.6872                10.4240
 IR Inten    --      4.8648                 7.0813               104.9491

                     70                     71                     72
                      A                      A                      A
 Frequencies --   1648.6916              1656.2996              3019.0063
 Red. masses --      6.3829                 7.0543                 1.0348
 Frc consts  --     10.2223                11.4021                 5.5568
 IR Inten    --      9.4639                51.3172                61.1143

                     73                     74                     75
                      A                      A                      A
 Frequencies --   3041.5453              3083.0160              3122.8603
 Red. masses --      1.0289                 1.1057                 1.1069
 Frc consts  --      5.6082                 6.1923                 6.3599
 IR Inten    --     53.1756                34.1431                26.3764

                     76                     77                     78
                      A                      A                      A
 Frequencies --   3129.3441              3153.2421              3188.7826
 Red. masses --      1.1071                 1.1003                 1.0858
 Frc consts  --      6.3877                 6.4459                 6.5050
 IR Inten    --     25.5981                19.3778                 1.0496

                     79                     80                     81
                      A                      A                      A
 Frequencies --   3190.8023              3201.0687              3212.3964
 Red. masses --      1.0883                 1.0905                 1.0953
 Frc consts  --      6.5281                 6.5834                 6.6597
 IR Inten    --     11.9985                12.6722                13.2663

                     82                     83                     84
                      A                      A                      A
 Frequencies --   3221.9159              3222.0349              3232.6570
 Red. masses --      1.0952                 1.0934                 1.0925
 Frc consts  --      6.6986                 6.6881                 6.7264
 IR Inten    --     11.0904                 5.2178                 9.2228

 - Thermochemistry -
 -------------------
 Temperature   298.150 Kelvin.  Pressure   1.00000 Atm.
 Atom     1 has atomic number  6 and mass  12.00000

 Molecular mass:   292.00989 amu.
 Principal axes and moments of inertia in atomic units:
                           1         2         3
     Eigenvalues --  3912.391825054.288096113.80472
           X            0.99399   0.10762   0.01992
           Y           -0.10448   0.98726  -0.12002
           Z           -0.03259   0.11722   0.99257
 This molecule is an asymmetric top.
 Rotational symmetry number  1.
 Warning -- assumption of classical behavior for rotation
           may cause significant error
 Rotational temperatures (Kelvin)      0.02214     0.01714     0.01417
 Rotational constants (GHZ):           0.46129     0.35707     0.29519
 Zero-point vibrational energy     621472.6 (Joules/Mol)
                                  148.53551 (Kcal/Mol)
 Warning -- explicit consideration of  23 degrees of freedom as
           vibrations may cause significant error
 Vibrational temperatures:     38.90    80.08    90.60   109.77   147.85
          (Kelvin)            193.09   207.45   259.85   283.06   291.05
                              329.99   391.17   409.20   423.56   475.44
                              508.60   590.40   628.57   669.47   723.47
                              760.29   813.83   833.43   900.62   939.34
                              963.50  1026.26  1066.49  1094.83  1116.48
                             1133.25  1156.59  1249.57  1279.51  1363.12
                             1383.79  1385.58  1433.20  1472.05  1515.13
                             1520.43  1558.56  1604.92  1634.08  1652.82
                             1689.54  1694.93  1711.08  1719.09  1744.66
                             1759.77  1835.52  1846.81  1886.32  1900.03
                             1921.52  1961.21  2114.39  2124.35  2138.52
                             2163.02  2166.77  2169.81  2182.68  2190.86
                             2192.31  2212.39  2329.18  2356.13  2372.10
                             2383.05  4343.68  4376.11  4435.77  4493.10
                             4502.43  4536.81  4587.95  4590.85  4605.62
                             4621.92  4635.62  4635.79  4651.07

 Zero-point correction=                           0.236706 (Hartree/Particle)
 Thermal correction to Energy=                    0.252428
 Thermal correction to Enthalpy=                  0.253372
 Thermal correction to Gibbs Free Energy=         0.192278
 Sum of electronic and zero-point Energies=          -3263.299142
 Sum of electronic and thermal Energies=             -3263.283420
 Sum of electronic and thermal Enthalpies=           -3263.282476
 Sum of electronic and thermal Free Energies=        -3263.343570

                     E (Thermal)             CV                S
                      KCal/Mol        Cal/Mol-Kelvin    Cal/Mol-Kelvin
 Total                  158.401             58.903            128.583
 Electronic               0.000              0.000              0.000
 Translational            0.889              2.981             42.912
 Rotational               0.889              2.981             33.158
 Vibrational            156.624             52.942             52.513
 Vibration     1          0.593              1.984              6.036
 Vibration     2          0.596              1.975              4.605
 Vibration     3          0.597              1.972              4.362
 Vibration     4          0.599              1.965              3.984
 Vibration     5          0.605              1.947              3.401
 Vibration     6          0.613              1.919              2.885
 Vibration     7          0.616              1.909              2.748
 Vibration     8          0.630              1.866              2.322
 Vibration     9          0.636              1.844              2.163
 Vibration    10          0.639              1.837              2.112
 Vibration    11          0.652              1.796              1.884
 Vibration    12          0.675              1.725              1.584
 Vibration    13          0.683              1.703              1.507
 Vibration    14          0.689              1.684              1.449
 Vibration    15          0.713              1.615              1.258
 Vibration    16          0.730              1.568              1.151
 Vibration    17          0.775              1.448              0.925
 Vibration    18          0.797              1.390              0.836
 Vibration    19          0.823              1.327              0.751
 Vibration    20          0.858              1.244              0.651
 Vibration    21          0.883              1.187              0.591
 Vibration    22          0.922              1.106              0.513
 Vibration    23          0.936              1.076              0.487

 Optimization completed.
    -- Stationary point found.
 Normal termination of Gaussian 16 at Tue Sep 17 10:03:18 2024.
 Gaussian 16:  ES64L-G16RevC.02  7-Dec-2021

 ----------------------------------------------------------------------
 #p M062X/def2tzvp geom=check guess=read scf(xqc,tight) integral(grid=u
 ltrafine) scrf(SMD, solvent=1,4-Dioxane) polar prop=efg volume
 ----------------------------------------------------------------------

 ---
 spe
 ---
 Structure from the checkpoint file:  "smiles_00036_conf_2.chk"
 Charge =  0 Multiplicity = 1

                         Standard orientation:
 ---------------------------------------------------------------------
 Center     Atomic      Atomic             Coordinates (Angstroms)
 Number     Number       Type             X           Y           Z
 ---------------------------------------------------------------------
      1          6           0       -1.621075   -2.860215    1.459737
      2          8           0       -0.935996   -1.635065    1.265349
      3          6           0       -1.621499   -0.596082    0.710294
      4          6           0       -3.002533   -0.589485    0.509183
      5          6           0       -3.603892    0.545849   -0.040017
      6          6           0       -2.846698    1.647755   -0.411294
      7          6           0       -1.459188    1.627175   -0.223199
      8          8           0       -0.773586    2.744675   -0.622053
      9          6           0        0.372556    2.562849   -1.462317
     10          6           0       -0.829643    0.517969    0.359023
     11          6           0        0.623851    0.510732    0.666886
     12          6           0        1.128013    1.351122    1.668787
     13          6           0        2.486461    1.380167    1.976174
     14          6           0        3.373806    0.556322    1.283334
     15          6           0        2.901592   -0.286142    0.277816
     16          6           0        1.541785   -0.294661   -0.018280
     17         35           0        0.933051   -1.390255   -1.459762
     18          1           0       -2.419221   -2.765407    2.206717
     19          1           0       -2.048266   -3.230383    0.519972
     20          1           0       -0.873547   -3.566799    1.821667
     21          1           0       -3.608101   -1.443686    0.782488
     22          1           0       -4.678726    0.555365   -0.192773
     23          1           0       -3.293172    2.524889   -0.864657
     24          1           0        0.340156    3.356957   -2.212975
     25          1           0        0.348930    1.588498   -1.959459
     26          1           0        1.298292    2.645099   -0.886046
     27          1           0        0.430718    1.989350    2.201077
     28          1           0        2.850345    2.041618    2.755811
     29          1           0        4.433691    0.569401    1.517143
     30          1           0        3.577550   -0.922993   -0.280419
 ---------------------------------------------------------------------

 SCF Done:  E(RM062X) =  -3265.91813754     A.U. after   12 cycles
