 Gaussian 16, Revision C.02,

 ----------------------------------------------------------------------
 #p B3LYP/6-31G(d,p) EmpiricalDispersion=GD3BJ opt freq scf(xqc,tight)
 integral(grid=ultrafine)
 ----------------------------------------------------------------------

 ----------------------------------
 opt-freq conformers_unique/conf_ac
 ----------------------------------
 Symbolic Z-matrix:
 Charge =  0 Multiplicity = 1

 SCF Done:  E(RB3LYP) =  -3150.42147662     A.U. after   14 cycles
 SCF Done:  E(RB3LYP) =  -3150.42286893     A.U. after   12 cycles
 SCF Done:  E(RB3LYP) =  -3150.42309312     A.U. after   11 cycles
 SCF Done:  E(RB3LYP) =  -3150.42322919     A.U. after   12 cycles
 SCF Done:  E(RB3LYP) =  -3150.42327088     A.U. after   11 cycles
 SCF Done:  E(RB3LYP) =  -3150.42329167     A.U. after    9 cycles
 SCF Done:  E(RB3LYP) =  -3150.42329891     A.U. after    9 cycles
 SCF Done:  E(RB3LYP) =  -3150.42330040     A.U. after    8 cycles
 SCF Done:  E(RB3LYP) =  -3150.42330204     A.U. after    8 cycles
 SCF Done:  E(RB3LYP) =  -3150.42330327     A.U. after    9 cycles
 SCF Done:  E(RB3LYP) =  -3150.42330354     A.U. after    7 cycles
 SCF Done:  E(RB3LYP) =  -3150.42330356     A.U. after    6 cycles
 SCF Done:  E(RB3LYP) =  -3150.42330357     A.U. after    7 cycles
 SCF Done:  E(RB3LYP) =  -3150.42330357     A.U. after    6 cycles
 Optimization completed.
    -- Stationary point found.
 Normal termination of Gaussian 16 at Tue Sep 17 09:55:16 2024.

 ----------------------------------------------------------------------
 #P Geom=AllCheck Guess=TCheck SCRF=Check GenChk RB3LYP/6-31G(d,p) Freq
 ----------------------------------------------------------------------

 Structure from the checkpoint file:  "smiles_00034_conf_2.chk"
 ----------------------------------
 opt-freq conformers_unique/conf_ac
 ----------------------------------
 Charge =  0 Multiplicity = 1

 SCF Done:  E(RB3LYP) =  -3150.42330357     A.U. after    1 cycles

                      1                      2                      3
                      A                      A                      A
 Frequencies --     22.4757                35.3071                42.5470
 Red. masses --      4.4087                 2.4152                 2.7052
 Frc consts  --      0.0013                 0.0018                 0.0029
 IR Inten    --      0.0707                 0.0218                 0.3221

                      4                      5                      6
                      A                      A                      A
 Frequencies --     78.9430                97.2406               122.6592
 Red. masses --      4.5093                 3.1360                 2.4285
 Frc consts  --      0.0166                 0.0175                 0.0215
 IR Inten    --      0.3861                 0.2815                 1.2085

                      7                      8                      9
                      A                      A                      A
 Frequencies --    165.3266               184.8369               225.0164
 Red. masses --      4.8506                 3.4126                 2.5600
 Frc consts  --      0.0781                 0.0687                 0.0764
 IR Inten    --      1.8109                 3.1523                 0.6208

                     10                     11                     12
                      A                      A                      A
 Frequencies --    229.0046               251.4332               271.6107
 Red. masses --      2.7484                 1.3353                 1.9483
 Frc consts  --      0.0849                 0.0497                 0.0847
 IR Inten    --      0.6035                 0.0185                 0.5967

                     13                     14                     15
                      A                      A                      A
 Frequencies --    295.0583               320.6910               338.8570
 Red. masses --      4.2397                 4.0467                 2.8738
 Frc consts  --      0.2175                 0.2452                 0.1944
 IR Inten    --      4.2301                 3.0379                 3.5612

                     16                     17                     18
                      A                      A                      A
 Frequencies --    357.2816               449.1311               453.5926
 Red. masses --      3.7697                 3.1647                 3.3411
 Frc consts  --      0.2835                 0.3761                 0.4050
 IR Inten    --      4.0995                 1.2406                 2.8235

                     19                     20                     21
                      A                      A                      A
 Frequencies --    486.6753               532.3099               635.1771
 Red. masses --      4.8474                 4.9740                 5.1835
 Frc consts  --      0.6765                 0.8304                 1.2321
 IR Inten    --      8.0112                 0.9524                 8.0783

                     22                     23                     24
                      A                      A                      A
 Frequencies --    677.8804               700.3133               749.9694
 Red. masses --      6.4447                 3.1690                 3.5482
 Frc consts  --      1.7448                 0.9157                 1.1758
 IR Inten    --     18.0188                 9.8475                24.2073

                     25                     26                     27
                      A                      A                      A
 Frequencies --    802.2065               814.0835               824.2598
 Red. masses --      1.4325                 1.2071                 1.0963
 Frc consts  --      0.5431                 0.4714                 0.4389
 IR Inten    --     31.0084                 6.0985                 0.2957

                     28                     29                     30
                      A                      A                      A
 Frequencies --    853.2360               884.2058               914.7073
 Red. masses --      2.4328                 2.7016                 1.6676
 Frc consts  --      1.0435                 1.2445                 0.8221
 IR Inten    --      6.7484                 9.6215                 9.7827

                     31                     32                     33
                      A                      A                      A
 Frequencies --    936.9770               962.9464               993.6424
 Red. masses --      1.3453                 2.3178                 1.3100
 Frc consts  --      0.6959                 1.2663                 0.7620
 IR Inten    --      2.4894                 7.1872                 1.3524

                     34                     35                     36
                      A                      A                      A
 Frequencies --   1017.8138              1029.2773              1036.4743
 Red. masses --      5.3242                 2.8780                 3.6258
 Frc consts  --      3.2497                 1.7964                 2.2949
 IR Inten    --      1.5154                 1.6894                47.6329

                     37                     38                     39
                      A                      A                      A
 Frequencies --   1088.4113              1097.2621              1110.4730
 Red. masses --      4.6966                 2.1113                 2.8742
 Frc consts  --      3.2781                 1.4977                 2.0883
 IR Inten    --    178.7433                26.0171               119.6804

                     40                     41                     42
                      A                      A                      A
 Frequencies --   1124.5923              1141.3640              1153.8190
 Red. masses --      1.5774                 2.2661                 2.8255
 Frc consts  --      1.1754                 1.7393                 2.2162
 IR Inten    --      8.4099                54.0182               111.6746

                     43                     44                     45
                      A                      A                      A
 Frequencies --   1192.6323              1194.1744              1210.1940
 Red. masses --      1.4777                 1.1623                 1.9003
 Frc consts  --      1.2384                 0.9766                 1.6398
 IR Inten    --      2.3104                11.1186                53.7849

                     46                     47                     48
                      A                      A                      A
 Frequencies --   1223.9287              1301.1185              1306.7209
 Red. masses --      2.5407                 1.2057                 1.2927
 Frc consts  --      2.2425                 1.2026                 1.3006
 IR Inten    --    100.1011                 6.4124                14.7999

                     49                     50                     51
                      A                      A                      A
 Frequencies --   1331.6314              1354.5342              1377.0852
 Red. masses --      1.1573                 4.4458                 1.4254
 Frc consts  --      1.2091                 4.8060                 1.5926
 IR Inten    --     32.3233                 0.3814               102.4322

                     52                     53                     54
                      A                      A                      A
 Frequencies --   1395.8132              1406.3027              1414.3429
 Red. masses --      1.1839                 1.2290                 1.2577
 Frc consts  --      1.3591                 1.4321                 1.4824
 IR Inten    --      7.2639                 0.7305                 4.9267

                     55                     56                     57
                      A                      A                      A
 Frequencies --   1433.6504              1438.8406              1464.0561
 Red. masses --      1.3404                 1.3683                 2.6539
 Frc consts  --      1.6232                 1.6690                 3.3515
 IR Inten    --     13.6509                18.7364                28.3501

                     58                     59                     60
                      A                      A                      A
 Frequencies --   1498.1000              1499.7137              1506.6820
 Red. masses --      1.0418                 1.0426                 1.0695
 Frc consts  --      1.3776                 1.3816                 1.4305
 IR Inten    --      4.3704                 3.5778                 0.8840

                     61                     62                     63
                      A                      A                      A
 Frequencies --   1515.3631              1516.0856              1530.5847
 Red. masses --      2.4053                 1.0504                 1.0710
 Frc consts  --      3.2542                 1.4225                 1.4783
 IR Inten    --     15.3985                 1.1596                 7.3091

                     64                     65                     66
                      A                      A                      A
 Frequencies --   1545.7733              1628.9141              1653.8588
 Red. masses --      1.0872                 6.3617                 6.1737
 Frc consts  --      1.5306                 9.9454                 9.9492
 IR Inten    --      0.3560                30.6041                 9.2865

                     67                     68                     69
                      A                      A                      A
 Frequencies --   3003.6815              3009.1469              3033.8871
 Red. masses --      1.0804                 1.0715                 1.0597
 Frc consts  --      5.7433                 5.7163                 5.7467
 IR Inten    --      8.3237                84.0794                28.7254

                     70                     71                     72
                      A                      A                      A
 Frequencies --   3051.9691              3052.8496              3078.9928
 Red. masses --      1.0377                 1.0352                 1.1034
 Frc consts  --      5.6950                 5.6842                 6.1629
 IR Inten    --     15.7933                23.6771                22.1054

                     73                     74                     75
                      A                      A                      A
 Frequencies --   3091.5590              3120.8644              3128.2543
 Red. masses --      1.0962                 1.1014                 1.1022
 Frc consts  --      6.1730                 6.3204                 6.3548
 IR Inten    --     28.6783                35.5650                26.4550

                     76                     77                     78
                      A                      A                      A
 Frequencies --   3132.1640              3155.5928              3191.9252
 Red. masses --      1.1038                 1.1019                 1.0873
 Frc consts  --      6.3803                 6.4645                 6.5267
 IR Inten    --     34.3288                17.6647                 7.0704

                     79                     80                     81
                      A                      A                      A
 Frequencies --   3211.0423              3223.8280              3249.1124
 Red. masses --      1.0928                 1.0949                 1.0912
 Frc consts  --      6.6388                 6.7043                 6.7870
 IR Inten    --      6.3757                 4.8960                 1.0234

 - Thermochemistry -
 -------------------
 Temperature   298.150 Kelvin.  Pressure   1.00000 Atm.
 Atom     1 has atomic number  6 and mass  12.00000

 Molecular mass:   258.02554 amu.
 Principal axes and moments of inertia in atomic units:
                           1         2         3
     Eigenvalues --  2093.396497588.115068828.73583
           X            0.99947   0.02800  -0.01638
           Y           -0.02750   0.99918   0.02973
           Z            0.01720  -0.02926   0.99942
 This molecule is an asymmetric top.
 Rotational symmetry number  1.
 Warning -- assumption of classical behavior for rotation
           may cause significant error
 Rotational temperatures (Kelvin)      0.04137     0.01141     0.00981
 Rotational constants (GHZ):           0.86211     0.23784     0.20442
 Zero-point vibrational energy     635121.7 (Joules/Mol)
                                  151.79774 (Kcal/Mol)
 Warning -- explicit consideration of  20 degrees of freedom as
           vibrations may cause significant error
 Vibrational temperatures:     32.34    50.80    61.22   113.58   139.91
          (Kelvin)            176.48   237.87   265.94   323.75   329.49
                              361.76   390.79   424.52   461.40   487.54
                              514.05   646.20   652.62   700.22   765.88
                              913.88   975.32  1007.59  1079.04  1154.20
                             1171.28  1185.93  1227.62  1272.17  1316.06
                             1348.10  1385.47  1429.63  1464.41  1480.90
                             1491.26  1565.98  1578.72  1597.72  1618.04
                             1642.17  1660.09  1715.93  1718.15  1741.20
                             1760.96  1872.02  1880.08  1915.92  1948.87
                             1981.32  2008.26  2023.36  2034.92  2062.70
                             2070.17  2106.45  2155.43  2157.75  2167.78
                             2180.27  2181.31  2202.17  2224.02  2343.64
                             2379.53  4321.63  4329.49  4365.09  4391.10
                             4392.37  4429.98  4448.06  4490.23  4500.86
                             4506.49  4540.19  4592.47  4619.97  4638.37
                             4674.75

 Zero-point correction=                           0.241905 (Hartree/Particle)
 Thermal correction to Energy=                    0.256673
 Thermal correction to Enthalpy=                  0.257617
 Thermal correction to Gibbs Free Energy=         0.197308
 Sum of electronic and zero-point Energies=          -3150.181398
 Sum of electronic and thermal Energies=             -3150.166631
 Sum of electronic and thermal Enthalpies=           -3150.165687
 Sum of electronic and thermal Free Energies=        -3150.225996

                     E (Thermal)             CV                S
                      KCal/Mol        Cal/Mol-Kelvin    Cal/Mol-Kelvin
 Total                  161.065             53.613            126.932
 Electronic               0.000              0.000              0.000
 Translational            0.889              2.981             42.543
 Rotational               0.889              2.981             33.305
 Vibrational            159.287             47.652             51.083
 Vibration     1          0.593              1.985              6.402
 Vibration     2          0.594              1.982              5.506
 Vibration     3          0.595              1.980              5.137
 Vibration     4          0.600              1.963              3.917
 Vibration     5          0.603              1.951              3.509
 Vibration     6          0.610              1.930              3.058
 Vibration     7          0.624              1.885              2.488
 Vibration     8          0.631              1.861              2.279
 Vibration     9          0.650              1.803              1.918
 Vibration    10          0.652              1.797              1.887
 Vibration    11          0.663              1.760              1.721
 Vibration    12          0.675              1.726              1.586
 Vibration    13          0.689              1.683              1.445
 Vibration    14          0.706              1.634              1.307
 Vibration    15          0.719              1.598              1.218
 Vibration    16          0.732              1.560              1.134
 Vibration    17          0.808              1.363              0.798
 Vibration    18          0.812              1.353              0.785
 Vibration    19          0.843              1.280              0.692
 Vibration    20          0.887              1.179              0.582

 Optimization completed.
    -- Stationary point found.
 Normal termination of Gaussian 16 at Tue Sep 17 09:58:53 2024.

 ----------------------------------------------------------------------
 #p M062X/def2tzvp geom=check guess=read scf(xqc,tight) integral(grid=u
 ltrafine) scrf(SMD, solvent=1,4-Dioxane) polar prop=efg volume
 ----------------------------------------------------------------------

 ---
 spe
 ---
 Structure from the checkpoint file:  "smiles_00034_conf_2.chk"
 Charge =  0 Multiplicity = 1

 SCF Done:  E(RM062X) =  -3152.81184735     A.U. after   11 cycles

 The electronic state is 1-A.
 Alpha  occ. eigenvalues -- -485.37292 -63.35772 -57.17715 -57.17482 -57.17475
 Alpha  occ. eigenvalues --  -19.63618 -19.63115 -10.64478 -10.60266 -10.58445
 Alpha  occ. eigenvalues --  -10.57594 -10.55866 -10.55507 -10.55310 -10.55251
 Alpha  occ. eigenvalues --  -10.54848 -10.52181 -10.52092  -9.02414  -6.84815
 Alpha  occ. eigenvalues --   -6.83950  -6.83929  -2.88192  -2.87879  -2.87854
 Alpha  occ. eigenvalues --   -2.87048  -2.87048  -1.19547  -1.13177  -0.98061
 Alpha  occ. eigenvalues --   -0.90345  -0.87829  -0.84925  -0.84226  -0.81637
 Alpha  occ. eigenvalues --   -0.76414  -0.71529  -0.70191  -0.67967  -0.65280
 Alpha  occ. eigenvalues --   -0.60265  -0.59061  -0.57065  -0.55983  -0.53518
 Alpha  occ. eigenvalues --   -0.52990  -0.51931  -0.49386  -0.49202  -0.47936
 Alpha  occ. eigenvalues --   -0.46804  -0.46087  -0.44819  -0.43907  -0.43234
 Alpha  occ. eigenvalues --   -0.42772  -0.41675  -0.40863  -0.40133  -0.37746
 Alpha  occ. eigenvalues --   -0.37128  -0.35257  -0.34947  -0.33978  -0.31646
 Alpha  occ. eigenvalues --   -0.29667
 Alpha virt. eigenvalues --    0.00516   0.01087   0.03865   0.07456   0.08654
 Alpha virt. eigenvalues --    0.09327   0.10589   0.10964   0.11978   0.12440
 Alpha virt. eigenvalues --    0.13041   0.13251   0.14530   0.14655   0.15649

 Mulliken charges:
               1
     1  C   -0.417240
     2  C   -0.144478
     3  O   -0.325394
     4  C    0.180956
     5  O   -0.329414
     6  C   -0.106006
     7  C   -0.452510
     8  C    0.038545
     9  C   -0.241233
    10  C   -0.130982
    11  C   -0.179240
    12  C    0.068527
    13  Br  -0.117946
    14  C   -0.203960
    15  H    0.146153
    16  H    0.146152
    17  H    0.145831
    18  H    0.152147
    19  H    0.157975
    20  H    0.146285
    21  H    0.133896
    22  H    0.144246
    23  H    0.151968
    24  H    0.151069
    25  H    0.161037
    26  H    0.185960
    27  H    0.166418
    28  H    0.178622
    29  H    0.192618
 Sum of Mulliken charges =  -0.00000

 Dipole moment (field-independent basis, Debye):
    X=             -2.2286    Y=              0.7091    Z=             -0.5007  Tot=              2.3917
 Quadrupole moment (field-independent basis, Debye-Ang):
   XX=            -98.1298   YY=            -88.6632   ZZ=            -96.9962
   XY=              7.1364   XZ=             -1.1807   YZ=              0.7595

  Exact polarizability:     219.396      -3.758     185.612       8.004      -9.842     130.875
 Approx polarizability:     214.340      -6.880     203.464      14.781     -14.597     154.051

 Normal termination of Gaussian 16 at Tue Sep 17 11:26:03 2024.
 Gaussian 16:  ES64L-G16RevC.02  7-Dec-2021

 ----------------------------------------------------------------------
 #p M062X/def2tzvp geom=check guess=read scf(xqc,tight) integral(grid=u
 ltrafine) scrf(SMD, solvent=1,4-Dioxane) nmr=giao
 ----------------------------------------------------------------------

 ---
 spe
 ---
 Structure from the checkpoint file:  "smiles_00034_conf_2.chk"
 Charge =  0 Multiplicity = 1

                         Standard orientation:
 ---------------------------------------------------------------------
 Center     Atomic      Atomic             Coordinates (Angstroms)
 Number     Number       Type             X           Y           Z
 ---------------------------------------------------------------------
      1          6           0       -3.878039    1.833837    1.437673
      2          6           0       -2.645303    1.023833    1.085079
      3          8           0       -2.706439    0.735499   -0.318253
      4          6           0       -1.689092   -0.125542   -0.794294
      5          8           0       -1.696906   -1.388369   -0.185698
      6          6           0       -2.711676   -2.287676   -0.639722
      7          6           0       -4.072581   -2.050673    0.003886
      8          6           0       -0.303159    0.483018   -0.636398
      9          6           0       -0.118992    1.834553   -0.948084
     10          6           0        1.144324    2.411616   -0.847527
     11          6           0        2.239592    1.650511   -0.435348
     12          6           0        2.039155    0.307997   -0.129204
     13         35           0        3.529028   -0.749634    0.440684
     14          6           0        0.784324   -0.288147   -0.224859
     15          1           0       -3.912702    2.757031    0.852012
     16          1           0       -4.788757    1.264295    1.231251
     17          1           0       -3.867523    2.097456    2.499723
     18          1           0       -1.729535    1.584623    1.311987
     19          1           0       -2.611013    0.086355    1.651049
     20          1           0       -1.925188   -0.228111   -1.864235
     21          1           0       -2.788044   -2.225689   -1.735570
     22          1           0       -2.338760   -3.285316   -0.388933
     23          1           0       -4.778470   -2.822436   -0.321440
     24          1           0       -3.991700   -2.099893    1.093854
     25          1           0       -4.468224   -1.071473   -0.271219
     26          1           0       -0.974745    2.426029   -1.255855
     27          1           0        1.283790    3.460944   -1.088214
     28          1           0        3.227168    2.088505   -0.352962
     29          1           0        0.643167   -1.332125    0.018998
 ---------------------------------------------------------------------

 SCF Done:  E(RM062X) =  -3152.81184735     A.U. after    1 cycles
