 Gaussian 16, Revision C.02,

 ----------------------------------------------------------------------
 #p B3LYP/6-31G(d,p) EmpiricalDispersion=GD3BJ opt freq scf(xqc,tight)
 integral(grid=ultrafine)
 ----------------------------------------------------------------------

 ----------------------------------
 opt-freq conformers_unique/conf_af
 ----------------------------------
 Symbolic Z-matrix:
 Charge =  0 Multiplicity = 1

 SCF Done:  E(RB3LYP) =  -3150.42113203     A.U. after   13 cycles
 SCF Done:  E(RB3LYP) =  -3150.42259124     A.U. after   12 cycles
 SCF Done:  E(RB3LYP) =  -3150.42289311     A.U. after   11 cycles
 SCF Done:  E(RB3LYP) =  -3150.42310073     A.U. after   11 cycles
 SCF Done:  E(RB3LYP) =  -3150.42317066     A.U. after   11 cycles
 SCF Done:  E(RB3LYP) =  -3150.42321775     A.U. after   10 cycles
 SCF Done:  E(RB3LYP) =  -3150.42322988     A.U. after    9 cycles
 SCF Done:  E(RB3LYP) =  -3150.42323317     A.U. after    8 cycles
 SCF Done:  E(RB3LYP) =  -3150.42323715     A.U. after    9 cycles
 SCF Done:  E(RB3LYP) =  -3150.42323953     A.U. after    8 cycles
 SCF Done:  E(RB3LYP) =  -3150.42324026     A.U. after    8 cycles
 SCF Done:  E(RB3LYP) =  -3150.42324047     A.U. after    7 cycles
 SCF Done:  E(RB3LYP) =  -3150.42324070     A.U. after    7 cycles
 SCF Done:  E(RB3LYP) =  -3150.42324079     A.U. after    7 cycles
 SCF Done:  E(RB3LYP) =  -3150.42324080     A.U. after    6 cycles
 Optimization completed.
    -- Stationary point found.
 Normal termination of Gaussian 16 at Tue Sep 17 09:55:22 2024.

 ----------------------------------------------------------------------
 #P Geom=AllCheck Guess=TCheck SCRF=Check GenChk RB3LYP/6-31G(d,p) Freq
 ----------------------------------------------------------------------

 Structure from the checkpoint file:  "smiles_00034_conf_5.chk"
 ----------------------------------
 opt-freq conformers_unique/conf_af
 ----------------------------------
 Charge =  0 Multiplicity = 1

 SCF Done:  E(RB3LYP) =  -3150.42324080     A.U. after    1 cycles

                      1                      2                      3
                      A                      A                      A
 Frequencies --     24.0284                33.7054                43.2010
 Red. masses --      4.0498                 2.6980                 2.7090
 Frc consts  --      0.0014                 0.0018                 0.0030
 IR Inten    --      0.0606                 0.0283                 0.3425

                      4                      5                      6
                      A                      A                      A
 Frequencies --     70.3124               105.5712               122.7571
 Red. masses --      3.7295                 2.9299                 2.8940
 Frc consts  --      0.0109                 0.0192                 0.0257
 IR Inten    --      0.3088                 0.3361                 1.2351

                      7                      8                      9
                      A                      A                      A
 Frequencies --    175.7629               183.8046               205.2854
 Red. masses --      3.0468                 4.5607                 3.9879
 Frc consts  --      0.0555                 0.0908                 0.0990
 IR Inten    --      3.6009                 1.1919                 0.8158

                     10                     11                     12
                      A                      A                      A
 Frequencies --    229.4887               253.8366               262.1651
 Red. masses --      3.2049                 1.2973                 1.4918
 Frc consts  --      0.0994                 0.0492                 0.0604
 IR Inten    --      0.8111                 0.1305                 1.4971

                     13                     14                     15
                      A                      A                      A
 Frequencies --    304.4950               321.8034               347.2139
 Red. masses --      4.5744                 3.5753                 2.8576
 Frc consts  --      0.2499                 0.2181                 0.2030
 IR Inten    --      0.4974                 5.4441                 2.0928

                     16                     17                     18
                      A                      A                      A
 Frequencies --    352.8578               448.9748               456.0806
 Red. masses --      4.1487                 3.1201                 3.5110
 Frc consts  --      0.3043                 0.3706                 0.4303
 IR Inten    --      7.4660                 2.1631                 3.0940

                     19                     20                     21
                      A                      A                      A
 Frequencies --    487.1295               530.8371               641.3441
 Red. masses --      4.8512                 5.0006                 5.0880
 Frc consts  --      0.6782                 0.8302                 1.2330
 IR Inten    --      7.1573                 1.0550                 7.7981

                     22                     23                     24
                      A                      A                      A
 Frequencies --    677.0130               700.1392               744.3764
 Red. masses --      6.6297                 3.2344                 3.6539
 Frc consts  --      1.7903                 0.9342                 1.1929
 IR Inten    --     21.4587                 9.2411                19.4743

                     25                     26                     27
                      A                      A                      A
 Frequencies --    800.0586               813.7611               824.0514
 Red. masses --      1.4331                 1.1889                 1.0962
 Frc consts  --      0.5405                 0.4639                 0.4386
 IR Inten    --     32.7230                 3.1319                 0.0554

                     28                     29                     30
                      A                      A                      A
 Frequencies --    854.7014               887.5892               912.5895
 Red. masses --      2.4187                 2.6771                 1.6980
 Frc consts  --      1.0410                 1.2426                 0.8332
 IR Inten    --      4.5961                11.2174                10.8284

                     31                     32                     33
                      A                      A                      A
 Frequencies --    937.3269               961.1182               995.4363
 Red. masses --      1.3412                 2.2465                 1.3200
 Frc consts  --      0.6943                 1.2226                 0.7707
 IR Inten    --      2.1205                10.4806                 1.6031

                     34                     35                     36
                      A                      A                      A
 Frequencies --   1017.3321              1030.1841              1037.4775
 Red. masses --      5.3530                 2.8261                 3.7829
 Frc consts  --      3.2641                 1.7671                 2.3990
 IR Inten    --      2.2434                 4.5468                38.5981

                     37                     38                     39
                      A                      A                      A
 Frequencies --   1087.8670              1098.2344              1110.1781
 Red. masses --      4.7424                 2.1202                 2.4910
 Frc consts  --      3.3068                 1.5067                 1.8089
 IR Inten    --    182.2085                17.2118                78.5239

                     40                     41                     42
                      A                      A                      A
 Frequencies --   1125.0717              1141.9636              1152.5301
 Red. masses --      1.6979                 2.2402                 2.8975
 Frc consts  --      1.2663                 1.7213                 2.2677
 IR Inten    --     61.4512                43.7516               111.5806

                     43                     44                     45
                      A                      A                      A
 Frequencies --   1192.9719              1194.0095              1210.1598
 Red. masses --      1.5110                 1.1309                 1.8752
 Frc consts  --      1.2670                 0.9500                 1.6181
 IR Inten    --      2.0599                12.5962                46.3912

                     46                     47                     48
                      A                      A                      A
 Frequencies --   1221.7798              1302.1431              1314.4649
 Red. masses --      2.5812                 1.1287                 1.4315
 Frc consts  --      2.2702                 1.1276                 1.4572
 IR Inten    --    114.4132                 0.4268                 4.8290

                     49                     50                     51
                      A                      A                      A
 Frequencies --   1329.6957              1353.6328              1375.3267
 Red. masses --      1.1408                 4.5534                 1.4097
 Frc consts  --      1.1884                 4.9157                 1.5711
 IR Inten    --     48.7997                 1.6294               100.6580

                     52                     53                     54
                      A                      A                      A
 Frequencies --   1396.2666              1406.2377              1414.3952
 Red. masses --      1.1882                 1.2299                 1.2596
 Frc consts  --      1.3648                 1.4330                 1.4846
 IR Inten    --      3.2945                 0.7450                 2.1541

                     55                     56                     57
                      A                      A                      A
 Frequencies --   1433.2502              1438.8022              1462.5338
 Red. masses --      1.3414                 1.3670                 2.6500
 Frc consts  --      1.6235                 1.6673                 3.3397
 IR Inten    --     17.6345                19.0930                24.6176

                     58                     59                     60
                      A                      A                      A
 Frequencies --   1498.2427              1499.6637              1506.5476
 Red. masses --      1.0415                 1.0428                 1.0705
 Frc consts  --      1.3774                 1.3818                 1.4315
 IR Inten    --      4.6134                 3.7762                 0.8978

                     61                     62                     63
                      A                      A                      A
 Frequencies --   1515.7532              1516.2426              1530.5621
 Red. masses --      1.4245                 1.4953                 1.0706
 Frc consts  --      1.9283                 2.0255                 1.4776
 IR Inten    --      7.6722                15.3172                 8.5158

                     64                     65                     66
                      A                      A                      A
 Frequencies --   1546.1351              1629.1874              1653.2862
 Red. masses --      1.0868                 6.2266                 6.3060
 Frc consts  --      1.5307                 9.7374                10.1554
 IR Inten    --      0.5632                22.3130                10.6617

                     67                     68                     69
                      A                      A                      A
 Frequencies --   3003.1366              3008.6538              3034.8950
 Red. masses --      1.0805                 1.0712                 1.0591
 Frc consts  --      5.7414                 5.7132                 5.7474
 IR Inten    --      8.1806                83.9356                27.6291

                     70                     71                     72
                      A                      A                      A
 Frequencies --   3051.8879              3053.0534              3078.5990
 Red. masses --      1.0378                 1.0351                 1.1039
 Frc consts  --      5.6951                 5.6848                 6.1646
 IR Inten    --     16.6415                21.0837                25.8145

                     73                     74                     75
                      A                      A                      A
 Frequencies --   3089.9027              3120.6875              3128.3967
 Red. masses --      1.0963                 1.1014                 1.1022
 Frc consts  --      6.1668                 6.3197                 6.3558
 IR Inten    --     32.5845                35.7707                26.5334

                     76                     77                     78
                      A                      A                      A
 Frequencies --   3132.6797              3155.6366              3193.0756
 Red. masses --      1.1038                 1.1018                 1.0886
 Frc consts  --      6.3823                 6.4646                 6.5396
 IR Inten    --     34.0557                18.1423                10.7892

                     79                     80                     81
                      A                      A                      A
 Frequencies --   3222.8306              3223.4406              3237.1557
 Red. masses --      1.0926                 1.0924                 1.0925
 Frc consts  --      6.6861                 6.6876                 6.7453
 IR Inten    --      2.0840                 1.6110                 3.1317

 - Thermochemistry -
 -------------------
 Temperature   298.150 Kelvin.  Pressure   1.00000 Atm.
 Atom     1 has atomic number  6 and mass  12.00000

 Molecular mass:   258.02554 amu.
 Principal axes and moments of inertia in atomic units:
                           1         2         3
     Eigenvalues --  1928.575857592.394508906.39360
           X            0.99959   0.02756  -0.00810
           Y           -0.02738   0.99941   0.02068
           Z            0.00866  -0.02045   0.99975
 This molecule is an asymmetric top.
 Rotational symmetry number  1.
 Warning -- assumption of classical behavior for rotation
           may cause significant error
 Rotational temperatures (Kelvin)      0.04491     0.01141     0.00972
 Rotational constants (GHZ):           0.93579     0.23770     0.20263
 Zero-point vibrational energy     635127.2 (Joules/Mol)
                                  151.79905 (Kcal/Mol)
 Warning -- explicit consideration of  20 degrees of freedom as
           vibrations may cause significant error
 Vibrational temperatures:     34.57    48.49    62.16   101.16   151.89
          (Kelvin)            176.62   252.88   264.45   295.36   330.18
                              365.21   377.20   438.10   463.00   499.56
                              507.68   645.97   656.20   700.87   763.76
                              922.75   974.07  1007.34  1070.99  1151.11
                             1170.82  1185.63  1229.72  1277.04  1313.01
                             1348.60  1382.83  1432.21  1463.71  1482.21
                             1492.70  1565.20  1580.11  1597.30  1618.73
                             1643.03  1658.23  1716.42  1717.91  1741.15
                             1757.87  1873.49  1891.22  1913.14  1947.58
                             1978.79  2008.92  2023.26  2035.00  2062.13
                             2070.12  2104.26  2155.64  2157.68  2167.59
                             2180.83  2181.53  2202.14  2224.54  2344.04
                             2378.71  4320.84  4328.78  4366.54  4390.99
                             4392.66  4429.42  4445.68  4489.97  4501.07
                             4507.23  4540.26  4594.12  4636.93  4637.81
                             4657.55

 Zero-point correction=                           0.241907 (Hartree/Particle)
 Thermal correction to Energy=                    0.256678
 Thermal correction to Enthalpy=                  0.257622
 Thermal correction to Gibbs Free Energy=         0.197341
 Sum of electronic and zero-point Energies=          -3150.181334
 Sum of electronic and thermal Energies=             -3150.166563
 Sum of electronic and thermal Enthalpies=           -3150.165619
 Sum of electronic and thermal Free Energies=        -3150.225900

                     E (Thermal)             CV                S
                      KCal/Mol        Cal/Mol-Kelvin    Cal/Mol-Kelvin
 Total                  161.068             53.608            126.873
 Electronic               0.000              0.000              0.000
 Translational            0.889              2.981             42.543
 Rotational               0.889              2.981             33.233
 Vibrational            159.290             47.646             51.096
 Vibration     1          0.593              1.985              6.270
 Vibration     2          0.594              1.983              5.598
 Vibration     3          0.595              1.980              5.107
 Vibration     4          0.598              1.968              4.145
 Vibration     5          0.605              1.945              3.349
 Vibration     6          0.610              1.930              3.056
 Vibration     7          0.628              1.872              2.373
 Vibration     8          0.631              1.862              2.289
 Vibration     9          0.640              1.832              2.085
 Vibration    10          0.652              1.796              1.883
 Vibration    11          0.665              1.756              1.704
 Vibration    12          0.669              1.742              1.647
 Vibration    13          0.695              1.665              1.392
 Vibration    14          0.707              1.632              1.301
 Vibration    15          0.725              1.581              1.179
 Vibration    16          0.729              1.569              1.153
 Vibration    17          0.808              1.363              0.799
 Vibration    18          0.814              1.347              0.778
 Vibration    19          0.843              1.279              0.691
 Vibration    20          0.886              1.182              0.585

 Optimization completed.
    -- Stationary point found.
 Normal termination of Gaussian 16 at Tue Sep 17 09:58:57 2024.

 ----------------------------------------------------------------------
 #p M062X/def2tzvp geom=check guess=read scf(xqc,tight) integral(grid=u
 ltrafine) scrf(SMD, solvent=1,4-Dioxane) polar prop=efg volume
 ----------------------------------------------------------------------

 ---
 spe
 ---
 Structure from the checkpoint file:  "smiles_00034_conf_5.chk"
 Charge =  0 Multiplicity = 1

 SCF Done:  E(RM062X) =  -3152.81171472     A.U. after   11 cycles

  Exact polarizability:     222.902     -10.023     180.571      -4.199     -14.718     131.902
 Approx polarizability:     216.492     -13.637     195.920      -3.642     -22.030     159.103

 Normal termination of Gaussian 16 at Tue Sep 17 11:20:44 2024.
 Gaussian 16:  ES64L-G16RevC.02  7-Dec-2021

 ----------------------------------------------------------------------
 #p M062X/def2tzvp geom=check guess=read scf(xqc,tight) integral(grid=u
 ltrafine) scrf(SMD, solvent=1,4-Dioxane) nmr=giao
 ----------------------------------------------------------------------

 ---
 spe
 ---
 Structure from the checkpoint file:  "smiles_00034_conf_5.chk"
 Charge =  0 Multiplicity = 1

                         Standard orientation:
 ---------------------------------------------------------------------
 Center     Atomic      Atomic             Coordinates (Angstroms)
 Number     Number       Type             X           Y           Z
 ---------------------------------------------------------------------
      1          6           0        4.855065    0.077153   -0.409008
      2          6           0        3.974819   -1.137207   -0.679135
      3          8           0        2.717620   -1.099271    0.001138
      4          6           0        1.722033   -0.323989   -0.610924
      5          8           0        1.896518    1.067521   -0.424396
      6          6           0        1.892950    1.500717    0.942719
      7          6           0        2.188840    2.988061    0.948957
      8          6           0        0.363670   -0.805378   -0.120846
      9          6           0        0.204442   -2.028729    0.531450
     10          6           0       -1.065698   -2.447419    0.930379
     11          6           0       -2.186266   -1.656541    0.682350
     12          6           0       -2.010156   -0.438725    0.028099
     13         35           0       -3.535649    0.664269   -0.315925
     14          6           0       -0.754076   -0.003698   -0.376523
     15          1           0        4.391533    0.987326   -0.793457
     16          1           0        5.018821    0.197082    0.666069
     17          1           0        5.830096   -0.054543   -0.890389
     18          1           0        3.800086   -1.252807   -1.759289
     19          1           0        4.462691   -2.049508   -0.322480
     20          1           0        1.780775   -0.441470   -1.703575
     21          1           0        0.916375    1.293841    1.398652
     22          1           0        2.648875    0.942506    1.506131
     23          1           0        2.182505    3.371497    1.973868
     24          1           0        3.169878    3.190279    0.509451
     25          1           0        1.436653    3.532506    0.370959
     26          1           0        1.077939   -2.638031    0.725666
     27          1           0       -1.186937   -3.397694    1.441213
     28          1           0       -3.176107   -1.973320    0.988664
     29          1           0       -0.632310    0.951460   -0.873150
 ---------------------------------------------------------------------

 SCF Done:  E(RM062X) =  -3152.81171472     A.U. after    1 cycles

      1  C    Isotropic =   167.9758   Anisotropy =    28.9958

      2  C    Isotropic =   112.4547   Anisotropy =    85.6645

      3  O    Isotropic =   245.2540   Anisotropy =    44.6066

      4  C    Isotropic =    75.8171   Anisotropy =    40.9027

      5  O    Isotropic =   230.2327   Anisotropy =    88.4720

      6  C    Isotropic =   128.1115   Anisotropy =    59.4471

      7  C    Isotropic =   171.0565   Anisotropy =    25.6351

      8  C    Isotropic =    17.7933   Anisotropy =   204.8684

      9  C    Isotropic =    37.3329   Anisotropy =   221.0688

     10  C    Isotropic =    33.1883   Anisotropy =   212.0835

     11  C    Isotropic =    31.9050   Anisotropy =   184.3954

     12  C    Isotropic =    24.5148   Anisotropy =   139.4146

     13  Br   Isotropic =  2080.9992   Anisotropy =  1300.7345

     14  C    Isotropic =    33.0345   Anisotropy =   184.5589

     15  H    Isotropic =    29.7961   Anisotropy =     5.9513

     16  H    Isotropic =    30.4540   Anisotropy =     6.1444

     17  H    Isotropic =    30.8673   Anisotropy =    11.0710

     18  H    Isotropic =    28.1350   Anisotropy =     6.9276

     19  H    Isotropic =    27.6554   Anisotropy =     8.1932

     20  H    Isotropic =    26.1822   Anisotropy =     2.2502

     21  H    Isotropic =    28.9792   Anisotropy =     6.0558

     22  H    Isotropic =    28.3818   Anisotropy =     4.6274

     23  H    Isotropic =    30.9542   Anisotropy =    10.8401

     24  H    Isotropic =    30.7055   Anisotropy =     7.9582

     25  H    Isotropic =    30.6608   Anisotropy =     8.2941

     26  H    Isotropic =    23.5155   Anisotropy =    11.3316

     27  H    Isotropic =    23.6717   Anisotropy =     6.1563

     28  H    Isotropic =    23.7407   Anisotropy =     9.8563

     29  H    Isotropic =    23.5014   Anisotropy =    15.0045

 The electronic state is 1-A.
 Alpha  occ. eigenvalues -- -485.37391 -63.35870 -57.17814 -57.17580 -57.17574
 Alpha  occ. eigenvalues --  -19.63636 -19.63114 -10.64486 -10.60348 -10.58485
 Alpha  occ. eigenvalues --  -10.57581 -10.55875 -10.55513 -10.55420 -10.55246
 Alpha  occ. eigenvalues --  -10.54679 -10.52122 -10.52117  -9.02512  -6.84914
 Alpha  occ. eigenvalues --   -6.84048  -6.84028  -2.88291  -2.87977  -2.87953
 Alpha  occ. eigenvalues --   -2.87146  -2.87145  -1.19547  -1.13184  -0.98091
 Alpha  occ. eigenvalues --   -0.90381  -0.87780  -0.84819  -0.84503  -0.81544
 Alpha  occ. eigenvalues --   -0.76411  -0.71545  -0.69739  -0.68707  -0.65005
 Alpha  occ. eigenvalues --   -0.60317  -0.59032  -0.57120  -0.55931  -0.53667
 Alpha  occ. eigenvalues --   -0.53000  -0.51467  -0.49838  -0.49061  -0.47842
 Alpha  occ. eigenvalues --   -0.46841  -0.46124  -0.44853  -0.43938  -0.43258
 Alpha  occ. eigenvalues --   -0.42766  -0.41775  -0.40745  -0.40049  -0.37714
 Alpha  occ. eigenvalues --   -0.37306  -0.35356  -0.34887  -0.34058  -0.31483
 Alpha  occ. eigenvalues --   -0.29809
 Alpha virt. eigenvalues --    0.00492   0.01084   0.03753   0.07504   0.08607
 Alpha virt. eigenvalues --    0.09662   0.10074   0.11103   0.11945   0.12235
 Alpha virt. eigenvalues --    0.13015   0.13564   0.14444   0.14711   0.15603

 Mulliken charges:
               1
     1  C   -0.453915
     2  C   -0.104691
     3  O   -0.329763
     4  C    0.179841
     5  O   -0.326585
     6  C   -0.144671
     7  C   -0.416650
     8  C    0.050577
     9  C   -0.204384
    10  C   -0.138542
    11  C   -0.181059
    12  C    0.084426
    13  Br  -0.116771
    14  C   -0.259854
    15  H    0.162355
    16  H    0.150996
    17  H    0.151971
    18  H    0.134009
    19  H    0.143167
    20  H    0.146356
    21  H    0.154987
    22  H    0.155870
    23  H    0.145475
    24  H    0.145651
    25  H    0.147869
    26  H    0.175220
    27  H    0.165970
    28  H    0.178488
    29  H    0.203659
 Sum of Mulliken charges =  -0.00000

 Dipole moment (field-independent basis, Debye):
    X=              2.4908    Y=             -1.2652    Z=              0.4416  Tot=              2.8284
 Quadrupole moment (field-independent basis, Debye-Ang):
   XX=            -92.9306   YY=            -92.9637   ZZ=            -96.7274
   XY=              0.7220   XZ=             -3.2922   YZ=              0.0524

 Normal termination of Gaussian 16 at Tue Sep 17 11:51:46 2024.
