 Gaussian 16, Revision C.02,

 ----------------------------------------------------------------------
 #p B3LYP/6-31G(d,p) EmpiricalDispersion=GD3BJ opt freq scf(xqc,tight)
 integral(grid=ultrafine)
 ----------------------------------------------------------------------

 ----------------------------------
 opt-freq conformers_unique/conf_aa
 ----------------------------------
 Symbolic Z-matrix:
 Charge =  0 Multiplicity = 1

 SCF Done:  E(RB3LYP) =  -877.571600115     A.U. after   15 cycles
 SCF Done:  E(RB3LYP) =  -877.574312951     A.U. after   12 cycles
 SCF Done:  E(RB3LYP) =  -877.574596823     A.U. after   11 cycles
 SCF Done:  E(RB3LYP) =  -877.574645746     A.U. after   10 cycles
 SCF Done:  E(RB3LYP) =  -877.574652260     A.U. after    9 cycles
 Optimization completed.
    -- Stationary point found.
 Normal termination of Gaussian 16 at Tue Sep 17 09:46:59 2024.

 ----------------------------------------------------------------------
 #P Geom=AllCheck Guess=TCheck SCRF=Check GenChk RB3LYP/6-31G(d,p) Freq
 ----------------------------------------------------------------------

 Structure from the checkpoint file:  "smiles_00019_conf_0.chk"
 ----------------------------------
 opt-freq conformers_unique/conf_aa
 ----------------------------------
 Charge =  0 Multiplicity = 1

 SCF Done:  E(RB3LYP) =  -877.574652260     A.U. after    1 cycles

                      1                      2                      3
                      A                      A                      A
 Frequencies --    106.4138               171.6151               220.2746
 Red. masses --      5.3874                 5.7526                 9.3922
 Frc consts  --      0.0359                 0.0998                 0.2685
 IR Inten    --      0.2990                 2.1861                 0.5519

                      4                      5                      6
                      A                      A                      A
 Frequencies --    241.5651               402.9960               421.6219
 Red. masses --      4.8469                14.7584                 3.6407
 Frc consts  --      0.1666                 1.4122                 0.3813
 IR Inten    --      0.7383                 4.2431                 0.1764

                      7                      8                      9
                      A                      A                      A
 Frequencies --    429.0361               457.2901               529.8563
 Red. masses --      5.4963                 4.7700                 9.0142
 Frc consts  --      0.5961                 0.5877                 1.4910
 IR Inten    --      0.2701                 0.0420                 1.6525

                     10                     11                     12
                      A                      A                      A
 Frequencies --    541.3244               576.7944               656.4636
 Red. masses --      8.8162                 3.9018                 5.3298
 Frc consts  --      1.5221                 0.7648                 1.3533
 IR Inten    --      6.2551                17.3644                 0.4222

                     13                     14                     15
                      A                      A                      A
 Frequencies --    698.4169               774.9059               792.9350
 Red. masses --      6.8120                 1.4208                 3.1092
 Frc consts  --      1.9577                 0.5027                 1.1518
 IR Inten    --     18.7453                32.6485                 7.2993

                     16                     17                     18
                      A                      A                      A
 Frequencies --    811.8229               882.5913               888.2159
 Red. masses --      7.5324                 5.4819                 1.4180
 Frc consts  --      2.9249                 2.5160                 0.6591
 IR Inten    --      3.2155                15.5253                 0.7004

                     19                     20                     21
                      A                      A                      A
 Frequencies --    941.5573               979.1664              1006.5001
 Red. masses --      1.4025                 1.3601                 7.2295
 Frc consts  --      0.7326                 0.7683                 4.3150
 IR Inten    --      6.4537                 2.2382                55.7024

                     22                     23                     24
                      A                      A                      A
 Frequencies --   1011.9071              1023.4669              1056.0507
 Red. masses --      1.3059                 7.3614                 2.1881
 Frc consts  --      0.7878                 4.5432                 1.4377
 IR Inten    --      0.0000                 9.4333                 0.7431

                     25                     26                     27
                      A                      A                      A
 Frequencies --   1170.6146              1192.9057              1261.6938
 Red. masses --      1.4468                 1.1536                 1.7636
 Frc consts  --      1.1681                 0.9672                 1.6541
 IR Inten    --      3.6875                 4.3664                 8.0698

                     28                     29                     30
                      A                      A                      A
 Frequencies --   1285.6923              1316.1377              1345.2134
 Red. masses --      2.2364                 3.2236                 3.8832
 Frc consts  --      2.1781                 3.2900                 4.1402
 IR Inten    --     59.6155                90.4114                17.4151

                     31                     32                     33
                      A                      A                      A
 Frequencies --   1410.1977              1434.1507              1472.3499
 Red. masses --      3.4460                 4.4133                 2.3981
 Frc consts  --      4.0376                 5.3481                 3.0629
 IR Inten    --      6.0350                24.7235                 0.6297

                     34                     35                     36
                      A                      A                      A
 Frequencies --   1527.4259              1600.1330              1622.3833
 Red. masses --      2.6996                 6.6570                 6.2381
 Frc consts  --      3.7108                10.0425                 9.6741
 IR Inten    --     11.4418                26.3600                 5.4613

                     37                     38                     39
                      A                      A                      A
 Frequencies --   1674.5795              3173.2894              3191.5077
 Red. masses --      5.9911                 1.0910                 1.0867
 Frc consts  --      9.8984                 6.4726                 6.5216
 IR Inten    --      1.0333                11.1962                 0.2231

                     40                     41                     42
                      A                      A                      A
 Frequencies --   3201.2005              3213.4429              3233.9162
 Red. masses --      1.0908                 1.0961                 1.0938
 Frc consts  --      6.5862                 6.6689                 6.7400
 IR Inten    --     10.0576                14.0042                 2.0296

 - Thermochemistry -
 -------------------
 Temperature   298.150 Kelvin.  Pressure   1.00000 Atm.
 Atom     1 has atomic number 17 and mass  34.96885

 Molecular mass:   164.01413 amu.
 Principal axes and moments of inertia in atomic units:
                           1         2         3
     Eigenvalues --  1139.418181978.060623117.47880
           X            0.99977   0.02150   0.00004
           Y           -0.02150   0.99977   0.00004
           Z           -0.00004  -0.00004   1.00000
 This molecule is an asymmetric top.
 Rotational symmetry number  1.
 Warning -- assumption of classical behavior for rotation
           may cause significant error
 Rotational temperatures (Kelvin)      0.07602     0.04379     0.02778
 Rotational constants (GHZ):           1.58391     0.91238     0.57891
 Zero-point vibrational energy     298765.1 (Joules/Mol)
                                   71.40657 (Kcal/Mol)
 Warning -- explicit consideration of  11 degrees of freedom as
           vibrations may cause significant error
 Vibrational temperatures:    153.11   246.92   316.93   347.56   579.82
          (Kelvin)            606.62   617.29   657.94   762.35   778.85
                              829.88   944.50  1004.87  1114.92  1140.86
                             1168.03  1269.85  1277.94  1354.69  1408.80
                             1448.13  1455.91  1472.54  1519.42  1684.25
                             1716.33  1815.30  1849.82  1893.63  1935.46
                             2028.96  2063.42  2118.38  2197.63  2302.23
                             2334.25  2409.35  4565.66  4591.87  4605.81
                             4623.43  4652.88

 Zero-point correction=                           0.113794 (Hartree/Particle)
 Thermal correction to Energy=                    0.121623
 Thermal correction to Enthalpy=                  0.122568
 Thermal correction to Gibbs Free Energy=         0.080481
 Sum of electronic and zero-point Energies=           -877.460859
 Sum of electronic and thermal Energies=              -877.453029
 Sum of electronic and thermal Enthalpies=            -877.452085
 Sum of electronic and thermal Free Energies=         -877.494171

                     E (Thermal)             CV                S
                      KCal/Mol        Cal/Mol-Kelvin    Cal/Mol-Kelvin
 Total                   76.320             30.974             88.579
 Electronic               0.000              0.000              0.000
 Translational            0.889              2.981             41.193
 Rotational               0.889              2.981             30.331
 Vibrational             74.542             25.012             17.055
 Vibration     1          0.605              1.944              3.333
 Vibration     2          0.626              1.877              2.418
 Vibration     3          0.647              1.810              1.957
 Vibration     4          0.658              1.777              1.791
 Vibration     5          0.768              1.464              0.952
 Vibration     6          0.784              1.423              0.886
 Vibration     7          0.790              1.407              0.862
 Vibration     8          0.815              1.345              0.774
 Vibration     9          0.885              1.184              0.588
 Vibration    10          0.896              1.159              0.562
 Vibration    11          0.933              1.081              0.491

 Optimization completed.
    -- Stationary point found.
 Normal termination of Gaussian 16 at Tue Sep 17 09:47:53 2024.

 ----------------------------------------------------------------------
 #p M062X/def2tzvp geom=check guess=read scf(xqc,tight) integral(grid=u
 ltrafine) scrf(SMD, solvent=1,4-Dioxane) polar prop=efg volume
 ----------------------------------------------------------------------

 ---
 spe
 ---
 Structure from the checkpoint file:  "smiles_00019_conf_0.chk"
 Charge =  0 Multiplicity = 1

 SCF Done:  E(RM062X) =  -877.521208850     A.U. after   13 cycles

  Exact polarizability:     178.156       5.851     161.847      -0.005      -0.004      67.433
 Approx polarizability:     197.399       7.513     191.596      -0.005      -0.004      85.812

 Normal termination of Gaussian 16 at Tue Sep 17 10:20:48 2024.
 Gaussian 16:  ES64L-G16RevC.02  7-Dec-2021

 ----------------------------------------------------------------------
 #p M062X/def2tzvp geom=check guess=read scf(xqc,tight) integral(grid=u
 ltrafine) scrf(SMD, solvent=1,4-Dioxane) nmr=giao
 ----------------------------------------------------------------------

 ---
 spe
 ---
 Structure from the checkpoint file:  "smiles_00019_conf_0.chk"
 Charge =  0 Multiplicity = 1

                         Standard orientation:
 ---------------------------------------------------------------------
 Center     Atomic      Atomic             Coordinates (Angstroms)
 Number     Number       Type             X           Y           Z
 ---------------------------------------------------------------------
      1         17           0        2.432334   -1.256791   -0.000041
      2          6           0        1.259779    0.054420   -0.000088
      3          7           0        1.764643    1.254832   -0.000150
      4          7           0        0.929115    2.338117   -0.000128
      5          6           0       -0.367808    2.141506   -0.000052
      6          6           0       -0.991408    0.863295    0.000018
      7          6           0       -2.392703    0.678213    0.000085
      8          6           0       -2.914256   -0.597327    0.000145
      9          6           0       -2.056368   -1.721163    0.000148
     10          6           0       -0.685819   -1.566383    0.000085
     11          6           0       -0.132262   -0.266886    0.000010
     12          1           0       -0.977886    3.042529   -0.000037
     13          1           0       -3.042069    1.548201    0.000090
     14          1           0       -3.989246   -0.745709    0.000191
     15          1           0       -2.484563   -2.718279    0.000200
     16          1           0       -0.027158   -2.425987    0.000085
 ---------------------------------------------------------------------

 SCF Done:  E(RM062X) =  -877.521208850     A.U. after    1 cycles

      1  Cl   Isotropic =   653.2240   Anisotropy =   512.8872

      2  C    Isotropic =    -0.0990   Anisotropy =   118.1784

      3  N    Isotropic =  -204.2055   Anisotropy =   601.5985

      4  N    Isotropic =  -221.6307   Anisotropy =   639.1130

      5  C    Isotropic =     7.8421   Anisotropy =   193.3642

      6  C    Isotropic =    35.1769   Anisotropy =   239.2920

      7  C    Isotropic =    36.7728   Anisotropy =   206.0861

      8  C    Isotropic =    29.2877   Anisotropy =   230.3706

      9  C    Isotropic =    28.2602   Anisotropy =   227.3415

     10  C    Isotropic =    38.9034   Anisotropy =   209.5811

     11  C    Isotropic =    38.1814   Anisotropy =   225.0700

     12  H    Isotropic =    21.2026   Anisotropy =     9.9116

     13  H    Isotropic =    22.9204   Anisotropy =     7.2539

     14  H    Isotropic =    22.9779   Anisotropy =     6.8922

     15  H    Isotropic =    22.8662   Anisotropy =     7.6045

     16  H    Isotropic =    22.5941   Anisotropy =    11.7015

 The electronic state is 1-A.
 Alpha  occ. eigenvalues -- -102.65666 -14.79556 -14.79516 -10.65378 -10.59653
 Alpha  occ. eigenvalues --  -10.59025 -10.58503 -10.57209 -10.57140 -10.57077
 Alpha  occ. eigenvalues --  -10.57026  -9.81929  -7.54122  -7.53617  -7.53588
 Alpha  occ. eigenvalues --   -1.13894  -1.00017  -0.98871  -0.91491  -0.88902
 Alpha  occ. eigenvalues --   -0.87444  -0.75914  -0.74929  -0.70533  -0.63764
 Alpha  occ. eigenvalues --   -0.61343  -0.59088  -0.54072  -0.53698  -0.53148
 Alpha  occ. eigenvalues --   -0.51487  -0.51080  -0.45568  -0.45480  -0.43391
 Alpha  occ. eigenvalues --   -0.43311  -0.39931  -0.38241  -0.36316  -0.34261
 Alpha  occ. eigenvalues --   -0.32818  -0.30981
 Alpha virt. eigenvalues --   -0.04620  -0.03096   0.03222   0.06559   0.08156
 Alpha virt. eigenvalues --    0.09592   0.09898   0.11056   0.12186   0.13424
 Alpha virt. eigenvalues --    0.14830   0.17202   0.18061   0.18788   0.19220

 Mulliken charges:
               1
     1  Cl  -0.065047
     2  C    0.112810
     3  N   -0.119025
     4  N   -0.141038
     5  C   -0.101797
     6  C    0.111771
     7  C   -0.185024
     8  C   -0.138650
     9  C   -0.137885
    10  C   -0.202086
    11  C    0.008835
    12  H    0.162651
    13  H    0.170825
    14  H    0.173941
    15  H    0.174741
    16  H    0.174977
 Sum of Mulliken charges =  -0.00000

 Dipole moment (field-independent basis, Debye):
    X=             -6.3615    Y=             -2.5162    Z=              0.0004  Tot=              6.8410
 Quadrupole moment (field-independent basis, Debye-Ang):
   XX=            -67.1219   YY=            -67.9013   ZZ=            -72.2005
   XY=             -6.3698   XZ=              0.0001   YZ=              0.0002

 Normal termination of Gaussian 16 at Tue Sep 17 10:32:06 2024.
