 Gaussian 16, Revision C.02,

 ----------------------------------------------------------------------
 #p B3LYP/gen pseudo=read EmpiricalDispersion=GD3BJ opt freq scf(xqc,ti
 ght) integral(grid=ultrafine)
 ----------------------------------------------------------------------

 ----------------------------------
 opt-freq conformers_unique/conf_aa
 ----------------------------------
 Symbolic Z-matrix:
 Charge =  0 Multiplicity = 1

 SCF Done:  E(RB3LYP) =  -550.316398612     A.U. after   15 cycles
 SCF Done:  E(RB3LYP) =  -550.317923091     A.U. after   12 cycles
 SCF Done:  E(RB3LYP) =  -550.318030469     A.U. after   11 cycles
 SCF Done:  E(RB3LYP) =  -550.318062355     A.U. after   11 cycles
 SCF Done:  E(RB3LYP) =  -550.318063728     A.U. after    8 cycles
 Optimization completed.
    -- Stationary point found.
 Normal termination of Gaussian 16 at Tue Sep 17 09:48:43 2024.

 ------------------------------------------------------------------
 #P Geom=AllCheck Guess=TCheck SCRF=Check GenChk RB3LYP/ChkBas Freq
 ------------------------------------------------------------------

 Structure from the checkpoint file:  "smiles_00094_conf_0.chk"
 ----------------------------------
 opt-freq conformers_unique/conf_aa
 ----------------------------------
 Charge =  0 Multiplicity = 1

 SCF Done:  E(RB3LYP) =  -550.318063728     A.U. after    1 cycles
 ******    1 imaginary frequencies (negative Signs) ******

                      1                      2                      3
                      A                      A                      A
 Frequencies --    -53.3205                47.6791                70.3123
 Red. masses --      1.0696                 4.8808                 5.3113
 Frc consts  --      0.0018                 0.0065                 0.0155
 IR Inten    --      0.5596                 0.0589                 8.2589

                      4                      5                      6
                      A                      A                      A
 Frequencies --    111.3127               133.0755               188.4706
 Red. masses --      6.8871                 5.2818                13.7190
 Frc consts  --      0.0503                 0.0551                 0.2871
 IR Inten    --      3.1224                 0.1729                 0.4020

                      7                      8                      9
                      A                      A                      A
 Frequencies --    213.9232               217.3904               282.9655
 Red. masses --      5.7420                 6.0922                10.6701
 Frc consts  --      0.1548                 0.1696                 0.5034
 IR Inten    --      6.2222                 0.0060                 1.4303

                     10                     11                     12
                      A                      A                      A
 Frequencies --    347.6858               365.2181               457.4425
 Red. masses --      5.9948                 4.1824                 3.3496
 Frc consts  --      0.4270                 0.3287                 0.4130
 IR Inten    --      0.5136                 5.4870                 3.7613

                     13                     14                     15
                      A                      A                      A
 Frequencies --    482.9909               550.5035               560.9109
 Red. masses --      5.2472                 8.8996                 2.0885
 Frc consts  --      0.7212                 1.5891                 0.3871
 IR Inten    --     14.7091                 4.9025                55.0862

                     16                     17                     18
                      A                      A                      A
 Frequencies --    578.6924               593.6343               628.1855
 Red. masses --      3.4583                 5.1272                 1.4780
 Frc consts  --      0.6824                 1.0646                 0.3436
 IR Inten    --      2.2669                 0.5717                27.3855

                     19                     20                     21
                      A                      A                      A
 Frequencies --    680.5916               706.2296               833.3246
 Red. masses --      5.7979                 4.7772                 4.6330
 Frc consts  --      1.5823                 1.4038                 1.8956
 IR Inten    --     14.3664                 0.0088                13.1974

                     22                     23                     24
                      A                      A                      A
 Frequencies --    844.9363               864.0401               869.1679
 Red. masses --      1.3479                 6.8742                 1.3461
 Frc consts  --      0.5670                 3.0237                 0.5991
 IR Inten    --     32.4873                60.3758                11.3780

                     25                     26                     27
                      A                      A                      A
 Frequencies --    969.9172               982.1438              1010.6154
 Red. masses --      6.2289                 1.2916                 1.6386
 Frc consts  --      3.4525                 0.7340                 0.9861
 IR Inten    --     19.5031                 2.5278                26.3591

                     28                     29                     30
                      A                      A                      A
 Frequencies --   1053.2009              1087.6799              1145.8889
 Red. masses --      1.7263                 1.8632                 1.9778
 Frc consts  --      1.1282                 1.2987                 1.5301
 IR Inten    --      4.8654                 3.8846                24.3321

                     31                     32                     33
                      A                      A                      A
 Frequencies --   1220.5712              1255.9190              1276.4172
 Red. masses --      1.9039                 2.5004                 1.5574
 Frc consts  --      1.6712                 2.3237                 1.4950
 IR Inten    --     20.4644                78.0513                25.1446

                     34                     35                     36
                      A                      A                      A
 Frequencies --   1317.4505              1363.2156              1402.2635
 Red. masses --      3.4525                 4.1963                 1.3307
 Frc consts  --      3.5307                 4.5946                 1.5417
 IR Inten    --     55.4816                87.3695                35.2859

                     37                     38                     39
                      A                      A                      A
 Frequencies --   1451.0320              1481.1516              1496.3814
 Red. masses --      3.8379                 1.0934                 1.0452
 Frc consts  --      4.7610                 1.4132                 1.3789
 IR Inten    --     77.2915                36.7202                 8.7258

                     40                     41                     42
                      A                      A                      A
 Frequencies --   1519.1670              1560.9792              1639.8669
 Red. masses --      2.2404                 2.8883                 5.4781
 Frc consts  --      3.0464                 4.1466                 8.6796
 IR Inten    --     59.8120               629.8335                62.6255

                     43                     44                     45
                      A                      A                      A
 Frequencies --   1661.8740              1801.2528              3054.7129
 Red. masses --      6.3598                 8.8974                 1.0389
 Frc consts  --     10.3488                17.0084                 5.7115
 IR Inten    --     43.0222               191.4889                 4.3640

                     46                     47                     48
                      A                      A                      A
 Frequencies --   3118.3683              3183.3465              3225.4819
 Red. masses --      1.1013                 1.1007                 1.0914
 Frc consts  --      6.3098                 6.5716                 6.6901
 IR Inten    --      9.5386                 4.4239                 1.5478

                     49                     50                     51
                      A                      A                      A
 Frequencies --   3239.4629              3269.8571              3635.0146
 Red. masses --      1.0927                 1.0924                 1.0767
 Frc consts  --      6.7564                 6.8816                 8.3823
 IR Inten    --      1.7655                 9.5564                40.8961

 - Thermochemistry -
 -------------------
 Temperature   298.150 Kelvin.  Pressure   1.00000 Atm.
 Atom     1 has atomic number  6 and mass  12.00000

 Molecular mass:   278.95157 amu.
 Principal axes and moments of inertia in atomic units:
                           1         2         3
     Eigenvalues --   954.559768741.868409685.14018
           X            0.99998   0.00549  -0.00001
           Y           -0.00549   0.99998   0.00000
           Z            0.00001  -0.00000   1.00000
 This molecule is an asymmetric top.
 Rotational symmetry number  1.
 Warning -- assumption of classical behavior for rotation
           may cause significant error
 Rotational temperatures (Kelvin)      0.09074     0.00991     0.00894
 Rotational constants (GHZ):           1.89065     0.20645     0.18634
    1 imaginary frequencies ignored.
 Zero-point vibrational energy     359190.2 (Joules/Mol)
                                   85.84852 (Kcal/Mol)
 Warning -- explicit consideration of  16 degrees of freedom as
           vibrations may cause significant error
 Vibrational temperatures:     68.60   101.16   160.15   191.47   271.17
          (Kelvin)            307.79   312.78   407.12   500.24   525.47
                              658.16   694.92   792.05   807.03   832.61
                              854.11   903.82   979.22  1016.11  1198.97
                             1215.67  1243.16  1250.54  1395.49  1413.09
                             1454.05  1515.32  1564.93  1648.68  1756.13
                             1806.99  1836.48  1895.52  1961.36  2017.54
                             2087.71  2131.05  2152.96  2185.74  2245.90
                             2359.40  2391.07  2591.60  4395.05  4486.64
                             4580.13  4640.75  4660.86  4704.60  5229.98

 Zero-point correction=                           0.136808 (Hartree/Particle)
 Thermal correction to Energy=                    0.147591
 Thermal correction to Enthalpy=                  0.148535
 Thermal correction to Gibbs Free Energy=         0.097845
 Sum of electronic and zero-point Energies=           -550.181255
 Sum of electronic and thermal Energies=              -550.170473
 Sum of electronic and thermal Enthalpies=            -550.169528
 Sum of electronic and thermal Free Energies=         -550.220219

                     E (Thermal)             CV                S
                      KCal/Mol        Cal/Mol-Kelvin    Cal/Mol-Kelvin
 Total                   92.615             39.432            106.686
 Electronic               0.000              0.000              0.000
 Translational            0.889              2.981             42.776
 Rotational               0.889              2.981             32.758
 Vibrational             90.837             33.470             31.153
 Vibration     1          0.595              1.978              4.911
 Vibration     2          0.598              1.968              4.145
 Vibration     3          0.607              1.940              3.246
 Vibration     4          0.613              1.920              2.901
 Vibration     5          0.633              1.856              2.243
 Vibration     6          0.644              1.820              2.010
 Vibration     7          0.646              1.815              1.981
 Vibration     8          0.682              1.705              1.516
 Vibration     9          0.725              1.580              1.177
 Vibration    10          0.738              1.544              1.100
 Vibration    11          0.816              1.344              0.774
 Vibration    12          0.839              1.288              0.702
 Vibration    13          0.906              1.139              0.543
 Vibration    14          0.917              1.116              0.522
 Vibration    15          0.935              1.077              0.488
 Vibration    16          0.951              1.045              0.461

                           ! Non-Optimized Parameters !
 Normal termination of Gaussian 16 at Tue Sep 17 09:49:52 2024.

 ----------------------------------------------------------------------
 #p M062X/def2tzvp geom=check guess=read scf(xqc,tight) integral(grid=u
 ltrafine) scrf(SMD, solvent=1,4-Dioxane) polar prop=efg volume
 ----------------------------------------------------------------------

 ---
 spe
 ---
 Structure from the checkpoint file:  "smiles_00094_conf_0.chk"
 Charge =  0 Multiplicity = 1

 SCF Done:  E(RM062X) =  -836.534176968     A.U. after   22 cycles

  Exact polarizability:     246.803       1.358     145.105      -0.004       0.002      87.266
 Approx polarizability:     226.467       0.142     181.380      -0.000       0.002     110.698

 Normal termination of Gaussian 16 at Tue Sep 17 10:39:13 2024.
 Gaussian 16:  ES64L-G16RevC.02  7-Dec-2021

 ----------------------------------------------------------------------
 #p M062X/def2tzvp geom=check guess=read scf(xqc,tight) integral(grid=u
 ltrafine) scrf(SMD, solvent=1,4-Dioxane) nmr=giao
 ----------------------------------------------------------------------

 ---
 spe
 ---
 Structure from the checkpoint file:  "smiles_00094_conf_0.chk"
 Charge =  0 Multiplicity = 1

                         Standard orientation:
 ---------------------------------------------------------------------
 Center     Atomic      Atomic             Coordinates (Angstroms)
 Number     Number       Type             X           Y           Z
 ---------------------------------------------------------------------
      1          6           0       -5.609524   -0.009233    0.000575
      2          6           0       -4.210856   -0.603423   -0.000326
      3          8           0       -3.998635   -1.805947   -0.000340
      4          7           0       -3.210698    0.348439   -0.000135
      5          6           0       -1.826267    0.140764   -0.000100
      6          6           0       -1.191218   -1.107951   -0.000030
      7          6           0        0.202634   -1.187466    0.000013
      8          6           0        0.971946   -0.026929   -0.000003
      9         53           0        3.105153   -0.159265    0.000051
     10          6           0        0.368297    1.230588   -0.000065
     11          6           0       -1.013582    1.282214   -0.000114
     12          9           0       -1.634697    2.491361   -0.000161
     13          1           0       -5.770383    0.611655    0.888373
     14          1           0       -6.331275   -0.824810   -0.002964
     15          1           0       -5.769116    0.618507   -0.882600
     16          1           0       -3.487985    1.319644   -0.000052
     17          1           0       -1.799599   -2.000631   -0.000046
     18          1           0        0.677476   -2.161120    0.000062
     19          1           0        0.935424    2.152657   -0.000077
 ---------------------------------------------------------------------

 SCF Done:  E(RM062X) =  -836.534176968     A.U. after    1 cycles

      1  C    Isotropic =   159.0516   Anisotropy =    56.0196

      2  C    Isotropic =    -3.8247   Anisotropy =   136.7116

      3  O    Isotropic =  -182.6989   Anisotropy =   753.9802

      4  N    Isotropic =   111.1611   Anisotropy =   110.5942

      5  C    Isotropic =    37.2314   Anisotropy =   164.5124

      6  C    Isotropic =    45.1012   Anisotropy =   196.9258

      7  C    Isotropic =    29.8583   Anisotropy =   181.1688

      8  C    Isotropic =    38.7990   Anisotropy =   130.9097

      9  I    Isotropic =   434.0668   Anisotropy =    74.5430

     10  C    Isotropic =    43.6195   Anisotropy =   150.9956

     11  C    Isotropic =    13.6197   Anisotropy =   105.3492

     12  F    Isotropic =   316.4421   Anisotropy =   129.7083

     13  H    Isotropic =    29.5749   Anisotropy =     5.8355

     14  H    Isotropic =    29.8972   Anisotropy =     7.4520

     15  H    Isotropic =    29.5789   Anisotropy =     5.8305

     16  H    Isotropic =    24.0167   Anisotropy =    11.0128

     17  H    Isotropic =    22.2251   Anisotropy =    10.8355

     18  H    Isotropic =    23.8139   Anisotropy =    11.8977

     19  H    Isotropic =    23.9016   Anisotropy =    11.6730

 The electronic state is 1-A.
 Alpha  occ. eigenvalues --  -25.27777 -19.61051 -14.79854 -10.66325 -10.64431
 Alpha  occ. eigenvalues --  -10.61080 -10.60330 -10.56856 -10.56115 -10.55788
 Alpha  occ. eigenvalues --  -10.54614  -7.10721  -5.10075  -5.09015  -5.09014
 Alpha  occ. eigenvalues --   -2.06904  -2.06466  -2.06460  -2.05583  -2.05582
 Alpha  occ. eigenvalues --   -1.38928  -1.17649  -1.06623  -0.97952  -0.88223
 Alpha  occ. eigenvalues --   -0.86548  -0.83416  -0.78318  -0.73746  -0.71482
 Alpha  occ. eigenvalues --   -0.66747  -0.64833  -0.61149  -0.58962  -0.58430
 Alpha  occ. eigenvalues --   -0.56306  -0.53880  -0.53030  -0.51620  -0.50590
 Alpha  occ. eigenvalues --   -0.49184  -0.47576  -0.46925  -0.44546  -0.44455
 Alpha  occ. eigenvalues --   -0.40375  -0.40065  -0.34468  -0.33553  -0.32487
 Alpha  occ. eigenvalues --   -0.32346  -0.27823
 Alpha virt. eigenvalues --   -0.00795  -0.00361   0.00913   0.05964   0.06382
 Alpha virt. eigenvalues --    0.09833   0.10534   0.11876   0.12754   0.13661
 Alpha virt. eigenvalues --    0.14861   0.15072   0.15438   0.17126   0.17651

 Mulliken charges:
               1
     1  C   -0.516457
     2  C    0.397513
     3  O   -0.405254
     4  N   -0.359011
     5  C    0.102261
     6  C   -0.185892
     7  C   -0.212326
     8  C    0.078262
     9  I   -0.092547
    10  C   -0.256963
    11  C    0.279630
    12  F   -0.226207
    13  H    0.176019
    14  H    0.170374
    15  H    0.175785
    16  H    0.275549
    17  H    0.214739
    18  H    0.189018
    19  H    0.195507
 Sum of Mulliken charges =  -0.00000

 Dipole moment (field-independent basis, Debye):
    X=             -2.2657    Y=              2.5828    Z=              0.0014  Tot=              3.4357
 Quadrupole moment (field-independent basis, Debye-Ang):
   XX=            -76.6145   YY=            -93.0186   ZZ=            -92.4761
   XY=            -12.2120   XZ=             -0.0070   YZ=             -0.0009

 Normal termination of Gaussian 16 at Tue Sep 17 10:57:54 2024.
