 Gaussian 16, Revision C.02,

 ----------------------------------------------------------------------
 #p B3LYP/6-31G(d,p) EmpiricalDispersion=GD3BJ opt freq scf(xqc,tight)
 integral(grid=ultrafine)
 ----------------------------------------------------------------------

 ----------------------------------
 opt-freq conformers_unique/conf_aj
 ----------------------------------
 Symbolic Z-matrix:
 Charge =  0 Multiplicity = 1

 SCF Done:  E(RB3LYP) =  -2996.56497921     A.U. after   15 cycles
 SCF Done:  E(RB3LYP) =  -2996.56610687     A.U. after   11 cycles
 SCF Done:  E(RB3LYP) =  -2996.56605012     A.U. after   12 cycles
 SCF Done:  E(RB3LYP) =  -2996.56636827     A.U. after   11 cycles
 SCF Done:  E(RB3LYP) =  -2996.56646780     A.U. after   11 cycles
 SCF Done:  E(RB3LYP) =  -2996.56662428     A.U. after   12 cycles
 SCF Done:  E(RB3LYP) =  -2996.56676309     A.U. after   10 cycles
 SCF Done:  E(RB3LYP) =  -2996.56650771     A.U. after   12 cycles
 SCF Done:  E(RB3LYP) =  -2996.56648952     A.U. after   15 cycles
 SCF Done:  E(RB3LYP) =  -2996.56715971     A.U. after   12 cycles
 SCF Done:  E(RB3LYP) =  -2996.56844117     A.U. after   12 cycles
 SCF Done:  E(RB3LYP) =  -2996.56864342     A.U. after   11 cycles
 SCF Done:  E(RB3LYP) =  -2996.56884248     A.U. after   12 cycles
 SCF Done:  E(RB3LYP) =  -2996.56894010     A.U. after   11 cycles
 SCF Done:  E(RB3LYP) =  -2996.56895229     A.U. after    9 cycles
 SCF Done:  E(RB3LYP) =  -2996.56895339     A.U. after    8 cycles
 SCF Done:  E(RB3LYP) =  -2996.56895362     A.U. after    7 cycles
 Optimization completed.
    -- Stationary point found.
 Normal termination of Gaussian 16 at Tue Sep 17 09:58:30 2024.

 ----------------------------------------------------------------------
 #P Geom=AllCheck Guess=TCheck SCRF=Check GenChk RB3LYP/6-31G(d,p) Freq
 ----------------------------------------------------------------------

 Structure from the checkpoint file:  "smiles_00017_conf_9.chk"
 ----------------------------------
 opt-freq conformers_unique/conf_aj
 ----------------------------------
 Charge =  0 Multiplicity = 1

 SCF Done:  E(RB3LYP) =  -2996.56895362     A.U. after    1 cycles

                      1                      2                      3
                      A                      A                      A
 Frequencies --     55.9326                68.2134               103.3857
 Red. masses --      2.8969                 3.8275                 3.8464
 Frc consts  --      0.0053                 0.0105                 0.0242
 IR Inten    --      0.0948                 1.1165                 0.4254

                      4                      5                      6
                      A                      A                      A
 Frequencies --    155.4616               191.3046               234.5620
 Red. masses --      5.1033                 5.2928                 1.0295
 Frc consts  --      0.0727                 0.1141                 0.0334
 IR Inten    --      0.4469                 1.0453                 0.1253

                      7                      8                      9
                      A                      A                      A
 Frequencies --    262.3518               275.0866               298.7402
 Red. masses --      1.5730                 2.4746                 3.4905
 Frc consts  --      0.0638                 0.1103                 0.1835
 IR Inten    --      0.2422                 1.0024                 1.4355

                     10                     11                     12
                      A                      A                      A
 Frequencies --    345.0704               400.4257               439.4473
 Red. masses --      3.0368                 3.2260                 2.6359
 Frc consts  --      0.2130                 0.3048                 0.2999
 IR Inten    --      0.1511                 0.7514                 0.2931

                     13                     14                     15
                      A                      A                      A
 Frequencies --    468.3111               496.4140               553.5819
 Red. masses --      3.4405                 5.4240                 3.8426
 Frc consts  --      0.4446                 0.7875                 0.6938
 IR Inten    --      3.4819                11.0915                 1.1402

                     16                     17                     18
                      A                      A                      A
 Frequencies --    615.9276               668.9953               746.3071
 Red. masses --      4.5698                 6.5057                 3.6437
 Frc consts  --      1.0214                 1.7155                 1.1957
 IR Inten    --      2.5170                13.5143                 5.7694

                     19                     20                     21
                      A                      A                      A
 Frequencies --    767.7951               812.7447               874.3455
 Red. masses --      1.3853                 2.4686                 3.1943
 Frc consts  --      0.4812                 0.9607                 1.4388
 IR Inten    --     26.9994                17.0320                 8.2771

                     22                     23                     24
                      A                      A                      A
 Frequencies --    889.8527               939.7825               954.5699
 Red. masses --      1.5679                 1.2445                 1.4635
 Frc consts  --      0.7315                 0.6476                 0.7857
 IR Inten    --      0.8894                 1.1133                 8.8843

                     25                     26                     27
                      A                      A                      A
 Frequencies --    956.6369               964.4536               992.9574
 Red. masses --      1.8502                 1.9046                 1.2943
 Frc consts  --      0.9976                 1.0438                 0.7519
 IR Inten    --     23.2777                38.7218                 0.2358

                     28                     29                     30
                      A                      A                      A
 Frequencies --   1047.6377              1067.8364              1142.1546
 Red. masses --      7.2400                 1.9102                 1.8972
 Frc consts  --      4.6818                 1.2833                 1.4582
 IR Inten    --     32.5888                 7.8979                93.2753

                     31                     32                     33
                      A                      A                      A
 Frequencies --   1143.7658              1170.0566              1185.0079
 Red. masses --      1.5200                 2.0092                 1.0968
 Frc consts  --      1.1716                 1.6207                 0.9075
 IR Inten    --      3.1690                18.9333                 0.8077

                     34                     35                     36
                      A                      A                      A
 Frequencies --   1210.8604              1275.2040              1296.6071
 Red. masses --      1.9398                 1.7856                 2.5390
 Frc consts  --      1.6757                 1.7108                 2.5150
 IR Inten    --     13.6585                31.6342               116.7530

                     37                     38                     39
                      A                      A                      A
 Frequencies --   1335.1647              1376.8486              1394.8627
 Red. masses --      8.4619                 1.3214                 1.1921
 Frc consts  --      8.8877                 1.4759                 1.3666
 IR Inten    --      4.0657                 3.8064                15.7293

                     40                     41                     42
                      A                      A                      A
 Frequencies --   1417.2830              1429.7651              1481.2963
 Red. masses --      1.4003                 1.2702                 2.2221
 Frc consts  --      1.6573                 1.5298                 2.8727
 IR Inten    --     20.9433                23.4636                 9.7519

                     43                     44                     45
                      A                      A                      A
 Frequencies --   1495.3043              1502.8205              1507.7292
 Red. masses --      1.0551                 1.0469                 1.0675
 Frc consts  --      1.3900                 1.3931                 1.4298
 IR Inten    --      1.0906                 0.5423                 7.5487

                     46                     47                     48
                      A                      A                      A
 Frequencies --   1515.4158              1525.6841              1624.4947
 Red. masses --      2.4710                 1.0893                 6.0762
 Frc consts  --      3.3434                 1.4939                 9.4475
 IR Inten    --     99.6437                 8.1658                 1.2375

                     49                     50                     51
                      A                      A                      A
 Frequencies --   1642.9979              3046.9091              3053.8231
 Red. masses --      6.2141                 1.0348                 1.0612
 Frc consts  --      9.8832                 5.6604                 5.8308
 IR Inten    --     17.8153                14.3591                 8.7559

                     52                     53                     54
                      A                      A                      A
 Frequencies --   3056.3112              3121.2560              3127.0693
 Red. masses --      1.0584                 1.1025                 1.1031
 Frc consts  --      5.8248                 6.3285                 6.3551
 IR Inten    --     19.9433                 7.3877                21.4654

                     55                     56                     57
                      A                      A                      A
 Frequencies --   3131.3281              3144.6151              3191.4515
 Red. masses --      1.1024                 1.1029                 1.0859
 Frc consts  --      6.3688                 6.4258                 6.5168
 IR Inten    --     43.2603                17.8316                 1.7749

                     58                     59                     60
                      A                      A                      A
 Frequencies --   3204.8752              3215.6536              3221.5713
 Red. masses --      1.0906                 1.0939                 1.0967
 Frc consts  --      6.6001                 6.6647                 6.7059
 IR Inten    --     12.8649                 8.9219                 6.7764

 - Thermochemistry -
 -------------------
 Temperature   298.150 Kelvin.  Pressure   1.00000 Atm.
 Atom     1 has atomic number  6 and mass  12.00000

 Molecular mass:   213.99933 amu.
 Principal axes and moments of inertia in atomic units:
                           1         2         3
     Eigenvalues --  2055.470632302.784444097.72528
           X            0.99502   0.09964  -0.00231
           Y           -0.09965   0.99498  -0.00903
           Z            0.00140   0.00921   0.99996
 This molecule is an asymmetric top.
 Rotational symmetry number  1.
 Warning -- assumption of classical behavior for rotation
           may cause significant error
 Rotational temperatures (Kelvin)      0.04214     0.03761     0.02114
 Rotational constants (GHZ):           0.87802     0.78372     0.44043
 Zero-point vibrational energy     471545.9 (Joules/Mol)
                                  112.70217 (Kcal/Mol)
 Warning -- explicit consideration of  16 degrees of freedom as
           vibrations may cause significant error
 Vibrational temperatures:     80.47    98.14   148.75   223.67   275.24
          (Kelvin)            337.48   377.47   395.79   429.82   496.48
                              576.12   632.27   673.80   714.23   796.48
                              886.18   962.54  1073.77  1104.69  1169.36
                             1257.99  1280.30  1352.14  1373.41  1376.39
                             1387.63  1428.64  1507.32  1536.38  1643.31
                             1645.62  1683.45  1704.96  1742.16  1834.73
                             1865.53  1921.00  1980.98  2006.90  2039.15
                             2057.11  2131.25  2151.41  2162.22  2169.29
                             2180.35  2195.12  2337.29  2363.91  4383.82
                             4393.77  4397.35  4490.79  4499.16  4505.28
                             4524.40  4591.79  4611.10  4626.61  4635.12

 Zero-point correction=                           0.179602 (Hartree/Particle)
 Thermal correction to Energy=                    0.190571
 Thermal correction to Enthalpy=                  0.191515
 Thermal correction to Gibbs Free Energy=         0.141789
 Sum of electronic and zero-point Energies=          -2996.389351
 Sum of electronic and thermal Energies=             -2996.378383
 Sum of electronic and thermal Enthalpies=           -2996.377439
 Sum of electronic and thermal Free Energies=        -2996.427165

                     E (Thermal)             CV                S
                      KCal/Mol        Cal/Mol-Kelvin    Cal/Mol-Kelvin
 Total                  119.585             40.961            104.658
 Electronic               0.000              0.000              0.000
 Translational            0.889              2.981             41.986
 Rotational               0.889              2.981             31.340
 Vibrational            117.807             34.999             31.332
 Vibration     1          0.596              1.975              4.596
 Vibration     2          0.598              1.969              4.204
 Vibration     3          0.605              1.946              3.389
 Vibration     4          0.620              1.897              2.604
 Vibration     5          0.634              1.852              2.215
 Vibration     6          0.654              1.788              1.844
 Vibration     7          0.670              1.742              1.646
 Vibration     8          0.677              1.719              1.564
 Vibration     9          0.692              1.676              1.424
 Vibration    10          0.723              1.585              1.189
 Vibration    11          0.766              1.469              0.961
 Vibration    12          0.799              1.384              0.828
 Vibration    13          0.825              1.320              0.742
 Vibration    14          0.852              1.258              0.667
 Vibration    15          0.909              1.132              0.537
 Vibration    16          0.976              0.998              0.423

 Optimization completed.
    -- Stationary point found.
 Normal termination of Gaussian 16 at Tue Sep 17 10:00:07 2024.

 ----------------------------------------------------------------------
 #p M062X/def2tzvp geom=check guess=read scf(xqc,tight) integral(grid=u
 ltrafine) scrf(SMD, solvent=1,4-Dioxane) polar prop=efg volume
 ----------------------------------------------------------------------

 ---
 spe
 ---
 Structure from the checkpoint file:  "smiles_00017_conf_9.chk"
 Charge =  0 Multiplicity = 1

 SCF Done:  E(RM062X) =  -2998.97467704     A.U. after   11 cycles

  Exact polarizability:     176.362     -12.487     166.849       7.052       5.734      97.512
 Approx polarizability:     178.744     -11.791     182.292      10.430       9.372     120.090

 Normal termination of Gaussian 16 at Tue Sep 17 10:43:40 2024.
 Gaussian 16:  ES64L-G16RevC.02  7-Dec-2021

 ----------------------------------------------------------------------
 #p M062X/def2tzvp geom=check guess=read scf(xqc,tight) integral(grid=u
 ltrafine) scrf(SMD, solvent=1,4-Dioxane) nmr=giao
 ----------------------------------------------------------------------

 ---
 spe
 ---
 Structure from the checkpoint file:  "smiles_00017_conf_9.chk"
 Charge =  0 Multiplicity = 1

                         Standard orientation:
 ---------------------------------------------------------------------
 Center     Atomic      Atomic             Coordinates (Angstroms)
 Number     Number       Type             X           Y           Z
 ---------------------------------------------------------------------
      1          6           0       -2.252418   -2.138018    0.851315
      2          6           0       -1.983588   -0.747208    0.292021
      3          6           0       -3.206115   -0.080377   -0.312635
      4          8           0       -1.006223   -0.835271   -0.783487
      5          6           0        0.305029   -0.851084   -0.404960
      6          6           0        1.028106   -2.046242   -0.465444
      7          6           0        2.381628   -2.078298   -0.135444
      8          6           0        3.030696   -0.910903    0.266667
      9          6           0        2.326964    0.291835    0.326285
     10          6           0        0.977097    0.316389   -0.012835
     11         35           0        0.032398    1.975118    0.028557
     12          1           0       -2.653769   -2.790951    0.070083
     13          1           0       -2.977986   -2.087272    1.669449
     14          1           0       -1.333254   -2.585629    1.240206
     15          1           0       -1.570432   -0.104269    1.077924
     16          1           0       -3.591587   -0.676626   -1.145377
     17          1           0       -2.936577    0.909926   -0.686536
     18          1           0       -3.996697    0.023633    0.436402
     19          1           0        0.502212   -2.939110   -0.785557
     20          1           0        2.926859   -3.015078   -0.189898
     21          1           0        4.083778   -0.928512    0.527435
     22          1           0        2.818916    1.210380    0.624467
 ---------------------------------------------------------------------

 SCF Done:  E(RM062X) =  -2998.97467704     A.U. after    1 cycles

      1  C    Isotropic =   165.1029   Anisotropy =    32.8776

      2  C    Isotropic =   103.4048   Anisotropy =    80.7472

      3  C    Isotropic =   162.1397   Anisotropy =    36.7833

      4  O    Isotropic =   190.3163   Anisotropy =    78.5594

      5  C    Isotropic =     5.1965   Anisotropy =   162.3921

      6  C    Isotropic =    37.5893   Anisotropy =   183.3133

      7  C    Isotropic =    34.6109   Anisotropy =   212.7958

      8  C    Isotropic =    39.0396   Anisotropy =   204.9161

      9  C    Isotropic =    29.2671   Anisotropy =   183.6653

     10  C    Isotropic =    31.4462   Anisotropy =   121.6847

     11  Br   Isotropic =  2168.4489   Anisotropy =  1040.0863

     12  H    Isotropic =    30.7700   Anisotropy =     7.7462

     13  H    Isotropic =    30.9883   Anisotropy =    10.4746

     14  H    Isotropic =    30.3798   Anisotropy =     6.6207

     15  H    Isotropic =    27.6419   Anisotropy =     6.8408

     16  H    Isotropic =    30.5417   Anisotropy =     7.5502

     17  H    Isotropic =    29.7812   Anisotropy =     6.7125

     18  H    Isotropic =    30.7793   Anisotropy =     9.9839

     19  H    Isotropic =    23.9716   Anisotropy =     8.7038

     20  H    Isotropic =    23.7435   Anisotropy =     5.6459

     21  H    Isotropic =    23.9450   Anisotropy =     5.3572

     22  H    Isotropic =    23.5612   Anisotropy =    10.8754

 The electronic state is 1-A.
 Alpha  occ. eigenvalues -- -485.37585 -63.36053 -57.18001 -57.17764 -57.17754
 Alpha  occ. eigenvalues --  -19.64240 -10.61058 -10.60107 -10.59366 -10.55681
 Alpha  occ. eigenvalues --  -10.55120 -10.54943 -10.54902 -10.52355 -10.52092
 Alpha  occ. eigenvalues --   -9.02687  -6.85099  -6.84224  -6.84189  -2.88476
 Alpha  occ. eigenvalues --   -2.88164  -2.88125  -2.87310  -2.87309  -1.17856
 Alpha  occ. eigenvalues --   -0.97487  -0.89972  -0.88913  -0.83934  -0.81228
 Alpha  occ. eigenvalues --   -0.78094  -0.70374  -0.69707  -0.65833  -0.60792
 Alpha  occ. eigenvalues --   -0.56255  -0.55680  -0.52961  -0.51844  -0.50555
 Alpha  occ. eigenvalues --   -0.48396  -0.46736  -0.46109  -0.44977  -0.43667
 Alpha  occ. eigenvalues --   -0.43059  -0.42499  -0.40914  -0.39760  -0.37737
 Alpha  occ. eigenvalues --   -0.35060  -0.34877  -0.30906  -0.29313
 Alpha virt. eigenvalues --    0.00884   0.01692   0.03680   0.07577   0.09743
 Alpha virt. eigenvalues --    0.10337   0.11200   0.12708   0.12885   0.13992
 Alpha virt. eigenvalues --    0.14170   0.15062   0.15280   0.16663   0.17403

 Mulliken charges:
               1
     1  C   -0.448246
     2  C   -0.025390
     3  C   -0.398256
     4  O   -0.309084
     5  C    0.197621
     6  C   -0.178586
     7  C   -0.155596
     8  C   -0.161525
     9  C   -0.170297
    10  C   -0.009766
    11  Br  -0.102394
    12  H    0.153626
    13  H    0.155045
    14  H    0.158522
    15  H    0.153380
    16  H    0.152812
    17  H    0.150127
    18  H    0.146578
    19  H    0.181519
    20  H    0.165813
    21  H    0.165741
    22  H    0.178357
 Sum of Mulliken charges =  -0.00000

 Dipole moment (field-independent basis, Debye):
    X=              0.3898    Y=             -1.6729    Z=              1.4158  Tot=              2.2260
 Quadrupole moment (field-independent basis, Debye-Ang):
   XX=            -68.5694   YY=            -75.0162   ZZ=            -82.5480
   XY=             -1.2175   XZ=             -0.5920   YZ=              0.3799

 Normal termination of Gaussian 16 at Tue Sep 17 10:59:59 2024.
