 Gaussian 16, Revision C.02,

 ----------------------------------------------------------------------
 #p B3LYP/6-31G(d,p) EmpiricalDispersion=GD3BJ opt freq scf(xqc,tight)
 integral(grid=ultrafine)
 ----------------------------------------------------------------------

 ----------------------------------
 opt-freq conformers_unique/conf_aa
 ----------------------------------
 Symbolic Z-matrix:
 Charge =  0 Multiplicity = 1

 SCF Done:  E(RB3LYP) =  -2972.07637506     A.U. after   15 cycles
 SCF Done:  E(RB3LYP) =  -2972.07790643     A.U. after   12 cycles
 SCF Done:  E(RB3LYP) =  -2972.07800931     A.U. after   10 cycles
 SCF Done:  E(RB3LYP) =  -2972.07801971     A.U. after    9 cycles
 Optimization completed.
    -- Stationary point found.
 Normal termination of Gaussian 16 at Tue Sep 17 09:48:30 2024.

 ----------------------------------------------------------------------
 #P Geom=AllCheck Guess=TCheck SCRF=Check GenChk RB3LYP/6-31G(d,p) Freq
 ----------------------------------------------------------------------

 Structure from the checkpoint file:  "smiles_00104_conf_0.chk"
 ----------------------------------
 opt-freq conformers_unique/conf_aa
 ----------------------------------
 Charge =  0 Multiplicity = 1

 SCF Done:  E(RB3LYP) =  -2972.07801971     A.U. after    1 cycles

                      1                      2                      3
                      A                      A                      A
 Frequencies --     67.7398                73.8449               154.9508
 Red. masses --      4.0694                 8.9492                 6.1024
 Frc consts  --      0.0110                 0.0288                 0.0863
 IR Inten    --      4.2435                 3.1408                 4.1335

                      4                      5                      6
                      A                      A                      A
 Frequencies --    166.9992               244.2041               248.0741
 Red. masses --      1.0329                 6.5576                10.6105
 Frc consts  --      0.0170                 0.2304                 0.3847
 IR Inten    --      0.3227                 1.3388                 3.5430

                      7                      8                      9
                      A                      A                      A
 Frequencies --    292.6305               417.9844               419.1682
 Red. masses --      5.6908                 3.6964                 3.3827
 Frc consts  --      0.2871                 0.3805                 0.3502
 IR Inten    --      3.6078                13.2506                 3.3715

                     10                     11                     12
                      A                      A                      A
 Frequencies --    476.3428               494.2267               608.7009
 Red. masses --      3.2660                 7.1974                 2.5904
 Frc consts  --      0.4366                 1.0358                 0.5655
 IR Inten    --      0.9224                11.1634                 3.4436

                     13                     14                     15
                      A                      A                      A
 Frequencies --    616.3490               641.8456               760.9724
 Red. masses --      4.2139                 7.6373                 5.0679
 Frc consts  --      0.9432                 1.8538                 1.7291
 IR Inten    --      9.0311                 1.9409                 4.5121

                     16                     17                     18
                      A                      A                      A
 Frequencies --    788.1059               865.1376               953.1200
 Red. masses --      6.7545                 1.3649                 1.3919
 Frc consts  --      2.4718                 0.6019                 0.7450
 IR Inten    --     32.5689                20.9536                 2.1700

                     19                     20                     21
                      A                      A                      A
 Frequencies --    967.2673              1015.9965              1033.3832
 Red. masses --      2.1666                 1.3415                 3.7344
 Frc consts  --      1.1944                 0.8159                 2.3496
 IR Inten    --     41.3077                 0.8605                14.6271

                     22                     23                     24
                      A                      A                      A
 Frequencies --   1050.5536              1101.5200              1121.2331
 Red. masses --      1.8572                 3.3710                 2.5883
 Frc consts  --      1.2076                 2.4098                 1.9171
 IR Inten    --      1.1365                18.7156               142.8710

                     25                     26                     27
                      A                      A                      A
 Frequencies --   1151.3256              1292.8769              1325.2015
 Red. masses --      1.2816                 3.3325                 5.0085
 Frc consts  --      1.0009                 3.2819                 5.1823
 IR Inten    --      9.6712               175.4718                 0.8738

                     28                     29                     30
                      A                      A                      A
 Frequencies --   1331.2437              1391.2848              1404.6474
 Red. masses --      1.6901                 1.9668                 1.7940
 Frc consts  --      1.7647                 2.2431                 2.0854
 IR Inten    --     25.3740                 9.3581               138.8383

                     31                     32                     33
                      A                      A                      A
 Frequencies --   1481.2937              1491.1526              1504.8324
 Red. masses --      1.0697                 1.0471                 2.2876
 Frc consts  --      1.3829                 1.3718                 3.0522
 IR Inten    --     12.4192                10.4576                34.1864

                     34                     35                     36
                      A                      A                      A
 Frequencies --   1603.6089              1633.1146              1784.8824
 Red. masses --      7.3821                 5.5255                10.9470
 Frc consts  --     11.1848                 8.6827                20.5478
 IR Inten    --     39.7163               196.6311               162.8783

                     37                     38                     39
                      A                      A                      A
 Frequencies --   3050.4381              3113.8114              3173.0336
 Red. masses --      1.0380                 1.0999                 1.1019
 Frc consts  --      5.6907                 6.2833                 6.5363
 IR Inten    --      2.0808                 6.7248                10.5032

                     40                     41                     42
                      A                      A                      A
 Frequencies --   3190.9387              3219.2705              3237.4658
 Red. masses --      1.0906                 1.0896                 1.0958
 Frc consts  --      6.5425                 6.6530                 6.7669
 IR Inten    --     13.6568                 0.7594                 1.0965

 - Thermochemistry -
 -------------------
 Temperature   298.150 Kelvin.  Pressure   1.00000 Atm.
 Atom     1 has atomic number  6 and mass  12.00000

 Molecular mass:   198.96327 amu.
 Principal axes and moments of inertia in atomic units:
                           1         2         3
     Eigenvalues --   483.156254775.472325247.42027
           X            0.99984  -0.01810   0.00000
           Y            0.01810   0.99984  -0.00000
           Z           -0.00000   0.00000   1.00000
 This molecule is an asymmetric top.
 Rotational symmetry number  1.
 Warning -- assumption of classical behavior for rotation
           may cause significant error
 Rotational temperatures (Kelvin)      0.17927     0.01814     0.01651
 Rotational constants (GHZ):           3.73532     0.37792     0.34393
 Zero-point vibrational energy     304813.1 (Joules/Mol)
                                   72.85208 (Kcal/Mol)
 Warning -- explicit consideration of  13 degrees of freedom as
           vibrations may cause significant error
 Vibrational temperatures:     97.46   106.25   222.94   240.27   351.36
          (Kelvin)            356.92   421.03   601.39   603.09   685.35
                              711.08   875.78   886.79   923.47  1094.87
                             1133.91  1244.74  1371.33  1391.68  1461.79
                             1486.81  1511.51  1584.84  1613.20  1656.50
                             1860.16  1906.67  1915.36  2001.75  2020.97
                             2131.25  2145.44  2165.12  2307.24  2349.69
                             2568.05  4388.90  4480.08  4565.29  4591.05
                             4631.81  4657.99

 Zero-point correction=                           0.116097 (Hartree/Particle)
 Thermal correction to Energy=                    0.125229
 Thermal correction to Enthalpy=                  0.126174
 Thermal correction to Gibbs Free Energy=         0.080177
 Sum of electronic and zero-point Energies=          -2971.961923
 Sum of electronic and thermal Energies=             -2971.952790
 Sum of electronic and thermal Enthalpies=           -2971.951846
 Sum of electronic and thermal Free Energies=        -2971.997843

                     E (Thermal)             CV                S
                      KCal/Mol        Cal/Mol-Kelvin    Cal/Mol-Kelvin
 Total                   78.583             32.865             96.809
 Electronic               0.000              0.000              0.000
 Translational            0.889              2.981             41.769
 Rotational               0.889              2.981             30.871
 Vibrational             76.805             26.904             24.169
 Vibration     1          0.598              1.970              4.218
 Vibration     2          0.599              1.966              4.048
 Vibration     3          0.620              1.897              2.611
 Vibration     4          0.624              1.883              2.469
 Vibration     5          0.660              1.772              1.772
 Vibration     6          0.662              1.766              1.744
 Vibration     7          0.688              1.687              1.459
 Vibration     8          0.781              1.431              0.899
 Vibration     9          0.782              1.429              0.895
 Vibration    10          0.833              1.303              0.720
 Vibration    11          0.850              1.263              0.673
 Vibration    12          0.968              1.013              0.435
 Vibration    13          0.976              0.997              0.422

 Optimization completed.
    -- Stationary point found.
 Normal termination of Gaussian 16 at Tue Sep 17 09:49:25 2024.

 ----------------------------------------------------------------------
 #p M062X/def2tzvp geom=check guess=read scf(xqc,tight) integral(grid=u
 ltrafine) scrf(SMD, solvent=1,4-Dioxane) polar prop=efg volume
 ----------------------------------------------------------------------

 ---
 spe
 ---
 Structure from the checkpoint file:  "smiles_00104_conf_0.chk"
 Charge =  0 Multiplicity = 1

 SCF Done:  E(RM062X) =  -2974.51879783     A.U. after   12 cycles

  Exact polarizability:     189.858       0.401     120.910      -0.000       0.000      70.637
 Approx polarizability:     185.692       6.555     147.225      -0.000       0.000      88.359

 Normal termination of Gaussian 16 at Tue Sep 17 10:11:02 2024.
 Gaussian 16:  ES64L-G16RevC.02  7-Dec-2021

 ----------------------------------------------------------------------
 #p M062X/def2tzvp geom=check guess=read scf(xqc,tight) integral(grid=u
 ltrafine) scrf(SMD, solvent=1,4-Dioxane) nmr=giao
 ----------------------------------------------------------------------

 ---
 spe
 ---
 Structure from the checkpoint file:  "smiles_00104_conf_0.chk"
 Charge =  0 Multiplicity = 1

                         Standard orientation:
 ---------------------------------------------------------------------
 Center     Atomic      Atomic             Coordinates (Angstroms)
 Number     Number       Type             X           Y           Z
 ---------------------------------------------------------------------
      1          6           0        4.002233   -1.178964    0.000002
      2          6           0        3.237539    0.128682   -0.000021
      3          8           0        3.816851    1.203056    0.000005
      4          6           0        1.741264    0.084507   -0.000012
      5          6           0        1.026105    1.291826   -0.000006
      6          6           0       -0.358972    1.265636   -0.000000
      7          6           0       -0.972811    0.007713    0.000001
      8         35           0       -2.885101   -0.067881    0.000008
      9          7           0       -0.334019   -1.147190   -0.000005
     10          6           0        1.005141   -1.103963   -0.000011
     11          1           0        5.069983   -0.961370    0.000020
     12          1           0        3.750528   -1.777231   -0.882365
     13          1           0        3.750495   -1.777222    0.882366
     14          1           0        1.579548    2.224662   -0.000007
     15          1           0       -0.952974    2.170659    0.000004
     16          1           0        1.501281   -2.070404   -0.000016
 ---------------------------------------------------------------------

 SCF Done:  E(RM062X) =  -2974.51879783     A.U. after    1 cycles

      1  C    Isotropic =   155.9149   Anisotropy =    49.6008

      2  C    Isotropic =   -39.4566   Anisotropy =   210.9195

      3  O    Isotropic =  -416.6559   Anisotropy =  1160.8583

      4  C    Isotropic =    32.6590   Anisotropy =   199.1299

      5  C    Isotropic =    22.9060   Anisotropy =   244.9346

      6  C    Isotropic =    35.1350   Anisotropy =   176.3704

      7  C    Isotropic =    -4.0806   Anisotropy =   126.3995

      8  Br   Isotropic =  1898.7799   Anisotropy =  1481.7027

      9  N    Isotropic =  -134.9565   Anisotropy =   576.1617

     10  C    Isotropic =     9.9246   Anisotropy =   195.6666

     11  H    Isotropic =    29.3831   Anisotropy =     6.3196

     12  H    Isotropic =    28.9728   Anisotropy =     4.5482

     13  H    Isotropic =    28.9728   Anisotropy =     4.5482

     14  H    Isotropic =    22.5756   Anisotropy =     7.9391

     15  H    Isotropic =    23.5403   Anisotropy =    11.0098

     16  H    Isotropic =    21.9379   Anisotropy =     8.8269

 The electronic state is 1-A.
 Alpha  occ. eigenvalues -- -485.38192 -63.36689 -57.18629 -57.18401 -57.18383
 Alpha  occ. eigenvalues --  -19.63000 -14.77739 -10.65094 -10.64699 -10.60587
 Alpha  occ. eigenvalues --  -10.58089 -10.57473 -10.57396 -10.54501  -9.03343
 Alpha  occ. eigenvalues --   -6.85744  -6.84895  -6.84837  -2.89121  -2.88823
 Alpha  occ. eigenvalues --   -2.88763  -2.87974  -2.87973  -1.17684  -1.08939
 Alpha  occ. eigenvalues --   -0.93428  -0.92107  -0.86650  -0.82851  -0.75045
 Alpha  occ. eigenvalues --   -0.72486  -0.65570  -0.59955  -0.58719  -0.54984
 Alpha  occ. eigenvalues --   -0.53066  -0.52904  -0.51313  -0.50260  -0.48613
 Alpha  occ. eigenvalues --   -0.46351  -0.44334  -0.44272  -0.38876  -0.36624
 Alpha  occ. eigenvalues --   -0.36135  -0.35825  -0.33917  -0.31949
 Alpha virt. eigenvalues --   -0.04587  -0.01615   0.03294   0.05376   0.07129
 Alpha virt. eigenvalues --    0.10073   0.12237   0.12694   0.13105   0.14301
 Alpha virt. eigenvalues --    0.14722   0.17143   0.17166   0.18162   0.19988

 Mulliken charges:
               1
     1  C   -0.536398
     2  C    0.292599
     3  O   -0.331147
     4  C    0.004327
     5  C   -0.125963
     6  C   -0.190802
     7  C    0.157623
     8  Br  -0.089211
     9  N   -0.223586
    10  C   -0.068430
    11  H    0.171411
    12  H    0.185540
    13  H    0.185541
    14  H    0.194377
    15  H    0.188444
    16  H    0.185675
 Sum of Mulliken charges =  -0.00000

 Dipole moment (field-independent basis, Debye):
    X=              1.2228    Y=             -0.6411    Z=             -0.0000  Tot=              1.3807
 Quadrupole moment (field-independent basis, Debye-Ang):
   XX=            -76.2063   YY=            -68.4813   ZZ=            -71.3024
   XY=            -14.0291   XZ=             -0.0001   YZ=             -0.0000

 Normal termination of Gaussian 16 at Tue Sep 17 10:18:42 2024.
