 Gaussian 16, Revision C.02,

 ----------------------------------------------------------------------
 #p B3LYP/6-31G(d,p) EmpiricalDispersion=GD3BJ opt freq scf(xqc,tight)
 integral(grid=ultrafine)
 ----------------------------------------------------------------------

 ----------------------------------
 opt-freq conformers_unique/conf_ae
 ----------------------------------
 Symbolic Z-matrix:
 Charge =  0 Multiplicity = 1

 SCF Done:  E(RB3LYP) =  -3181.02959351     A.U. after   14 cycles
 SCF Done:  E(RB3LYP) =  -3181.03261810     A.U. after   12 cycles
 SCF Done:  E(RB3LYP) =  -3181.03305966     A.U. after   11 cycles
 SCF Done:  E(RB3LYP) =  -3181.03329408     A.U. after   11 cycles
 SCF Done:  E(RB3LYP) =  -3181.03362034     A.U. after   12 cycles
 SCF Done:  E(RB3LYP) =  -3181.03382239     A.U. after   12 cycles
 SCF Done:  E(RB3LYP) =  -3181.03419427     A.U. after   11 cycles
 SCF Done:  E(RB3LYP) =  -3181.03419093     A.U. after   12 cycles
 SCF Done:  E(RB3LYP) =  -3181.03588948     A.U. after   12 cycles
 SCF Done:  E(RB3LYP) =  -3181.03495064     A.U. after   16 cycles
 SCF Done:  E(RB3LYP) =  -3181.03734400     A.U. after   12 cycles
 SCF Done:  E(RB3LYP) =  -3181.03741527     A.U. after   11 cycles
 SCF Done:  E(RB3LYP) =  -3181.03744996     A.U. after   11 cycles
 SCF Done:  E(RB3LYP) =  -3181.03745367     A.U. after    9 cycles
 SCF Done:  E(RB3LYP) =  -3181.03745652     A.U. after   10 cycles
 SCF Done:  E(RB3LYP) =  -3181.03745694     A.U. after    8 cycles
 SCF Done:  E(RB3LYP) =  -3181.03745703     A.U. after    8 cycles
 Optimization completed.
    -- Stationary point found.
 Normal termination of Gaussian 16 at Tue Sep 17 09:56:52 2024.

 ----------------------------------------------------------------------
 #P Geom=AllCheck Guess=TCheck SCRF=Check GenChk RB3LYP/6-31G(d,p) Freq
 ----------------------------------------------------------------------

 Structure from the checkpoint file:  "smiles_00023_conf_4.chk"
 ----------------------------------
 opt-freq conformers_unique/conf_ae
 ----------------------------------
 Charge =  0 Multiplicity = 1

 SCF Done:  E(RB3LYP) =  -3181.03745703     A.U. after    1 cycles

                      1                      2                      3
                      A                      A                      A
 Frequencies --     17.7790                32.3492                66.4835
 Red. masses --      3.6975                 4.5417                 6.8875
 Frc consts  --      0.0007                 0.0028                 0.0179
 IR Inten    --      0.8055                 1.6682                 0.3749

                      4                      5                      6
                      A                      A                      A
 Frequencies --     95.0389               155.6991               156.7825
 Red. masses --      6.4465                 3.9945                 7.1721
 Frc consts  --      0.0343                 0.0571                 0.1039
 IR Inten    --      0.7616                 0.1030                 0.6577

                      7                      8                      9
                      A                      A                      A
 Frequencies --    184.0805               205.7409               279.8609
 Red. masses --      4.3522                 4.9827                 4.9255
 Frc consts  --      0.0869                 0.1243                 0.2273
 IR Inten    --      0.0001                 1.2844                 0.0046

                     10                     11                     12
                      A                      A                      A
 Frequencies --    297.2199               342.7236               408.6904
 Red. masses --      6.8558                 7.8154                 4.2687
 Frc consts  --      0.3568                 0.5409                 0.4201
 IR Inten    --      0.6647                 2.0434                 0.0031

                     13                     14                     15
                      A                      A                      A
 Frequencies --    411.5552               451.0014               525.3934
 Red. masses --      6.0278                 3.3610                 7.2430
 Frc consts  --      0.6015                 0.4028                 1.1780
 IR Inten    --      4.5539                 2.2853                 0.9792

                     16                     17                     18
                      A                      A                      A
 Frequencies --    553.6829               663.2331               674.0066
 Red. masses --      5.9768                 3.6051                 4.2316
 Frc consts  --      1.0795                 0.9343                 1.1326
 IR Inten    --      1.0294                 4.1085                 2.2926

                     19                     20                     21
                      A                      A                      A
 Frequencies --    700.2148               713.7368               748.8321
 Red. masses --      2.9093                 4.9415                 5.0234
 Frc consts  --      0.8404                 1.4832                 1.6597
 IR Inten    --      6.0253                 5.4232                18.5438

                     22                     23                     24
                      A                      A                      A
 Frequencies --    762.4157               803.8176               809.3967
 Red. masses --      7.5671                 1.0835                 1.5297
 Frc consts  --      2.5916                 0.4125                 0.5904
 IR Inten    --     68.5954                 0.2396                18.8829

                     25                     26                     27
                      A                      A                      A
 Frequencies --    825.6192               910.3611               916.9316
 Red. masses --      1.6668                 2.6966                 3.9469
 Frc consts  --      0.6694                 1.3167                 1.9552
 IR Inten    --      6.8547                 0.5304                45.6230

                     28                     29                     30
                      A                      A                      A
 Frequencies --    927.4728               939.5480               984.3926
 Red. masses --      1.3651                 1.4297                11.2703
 Frc consts  --      0.6919                 0.7436                 6.4346
 IR Inten    --      0.7889                 7.9539                20.5548

                     31                     32                     33
                      A                      A                      A
 Frequencies --    991.9575              1001.3157              1015.9364
 Red. masses --      1.3086                 7.7355                 6.1779
 Frc consts  --      0.7587                 4.5696                 3.7569
 IR Inten    --      0.1833                 2.2967                 2.1970

                     34                     35                     36
                      A                      A                      A
 Frequencies --   1047.9603              1074.6832              1095.5525
 Red. masses --      3.8103                 1.2802                 3.1681
 Frc consts  --      2.4655                 0.8711                 2.2404
 IR Inten    --     12.4798                13.5483                 9.9898

                     37                     38                     39
                      A                      A                      A
 Frequencies --   1096.9327              1109.0435              1123.4636
 Red. masses --      1.3275                 2.1036                 1.1054
 Frc consts  --      0.9411                 1.5244                 0.8220
 IR Inten    --      3.6252                33.3247                 2.0424

                     40                     41                     42
                      A                      A                      A
 Frequencies --   1124.5757              1135.7401              1199.2917
 Red. masses --      1.5698                 2.5151                 1.1211
 Frc consts  --      1.1697                 1.9114                 0.9500
 IR Inten    --      2.9687                10.5738                 2.5112

                     43                     44                     45
                      A                      A                      A
 Frequencies --   1213.3071              1218.9638              1232.0977
 Red. masses --      1.3627                 4.3359                 1.9020
 Frc consts  --      1.1820                 3.7959                 1.7012
 IR Inten    --      0.3664                22.1053                52.8920

                     46                     47                     48
                      A                      A                      A
 Frequencies --   1314.4419              1340.4785              1359.8442
 Red. masses --      1.5430                 3.6250                 4.0885
 Frc consts  --      1.5707                 3.8378                 4.4544
 IR Inten    --      2.0928                21.1378                 0.3408

                     49                     50                     51
                      A                      A                      A
 Frequencies --   1448.3907              1474.8019              1478.2369
 Red. masses --      2.1711                 1.0876                 2.9061
 Frc consts  --      2.6835                 1.3938                 3.7415
 IR Inten    --      2.5022                 2.7475                40.8664

                     52                     53                     54
                      A                      A                      A
 Frequencies --   1506.3477              1518.3191              1598.3943
 Red. masses --      2.4543                 1.5323                 8.1265
 Frc consts  --      3.2811                 2.0813                12.2327
 IR Inten    --     41.1008                 3.9071                33.4709

                     55                     56                     57
                      A                      A                      A
 Frequencies --   1609.4715              1631.1572              1656.1695
 Red. masses --      9.8734                 7.0802                 6.1811
 Frc consts  --     15.0690                11.0990                 9.9891
 IR Inten    --    204.0302                11.0278                 8.7436

                     58                     59                     60
                      A                      A                      A
 Frequencies --   3152.6916              3154.6887              3199.2648
 Red. masses --      1.0503                 1.0586                 1.0881
 Frc consts  --      6.1507                 6.2072                 6.5619
 IR Inten    --     11.6495                10.6981                 8.0005

                     61                     62                     63
                      A                      A                      A
 Frequencies --   3201.6384              3223.3951              3227.9684
 Red. masses --      1.0904                 1.0917                 1.0960
 Frc consts  --      6.5853                 6.6832                 6.7285
 IR Inten    --      2.1548                 1.0472                 3.8501

                     64                     65                     66
                      A                      A                      A
 Frequencies --   3236.6926              3241.0971              3253.9367
 Red. masses --      1.0925                 1.1208                 1.1171
 Frc consts  --      6.7433                 6.9370                 6.9686
 IR Inten    --      2.2300                 0.6649                 6.7442

 - Thermochemistry -
 -------------------
 Temperature   298.150 Kelvin.  Pressure   1.00000 Atm.
 Atom     1 has atomic number 35 and mass  78.91834

 Molecular mass:   263.98982 amu.
 Principal axes and moments of inertia in atomic units:
                           1         2         3
     Eigenvalues --  1186.12599********************
           X            0.99988  -0.01566  -0.00000
           Y            0.01566   0.99988   0.00000
           Z            0.00000  -0.00000   1.00000
 This molecule is an asymmetric top.
 Rotational symmetry number  1.
 Warning -- assumption of classical behavior for rotation
           may cause significant error
 Rotational temperatures (Kelvin)      0.07302     0.00768     0.00703
 Rotational constants (GHZ):           1.52154     0.16012     0.14654
 Zero-point vibrational energy     472957.4 (Joules/Mol)
                                  113.03954 (Kcal/Mol)
 Warning -- explicit consideration of  16 degrees of freedom as
           vibrations may cause significant error
 Vibrational temperatures:     25.58    46.54    95.65   136.74   224.02
          (Kelvin)            225.58   264.85   296.02   402.66   427.63
                              493.10   588.01   592.14   648.89   755.92
                              796.63   954.24   969.75  1007.45  1026.91
                             1077.40  1096.95  1156.51  1164.54  1187.88
                             1309.81  1319.26  1334.43  1351.80  1416.32
                             1427.21  1440.67  1461.71  1507.78  1546.23
                             1576.26  1578.24  1595.67  1616.41  1618.01
                             1634.08  1725.51  1745.68  1753.82  1772.71
                             1891.19  1928.65  1956.51  2083.91  2121.91
                             2126.85  2167.30  2184.52  2299.73  2315.67
                             2346.87  2382.86  4536.02  4538.89  4603.03
                             4606.44  4637.75  4644.33  4656.88  4663.22
                             4681.69

 Zero-point correction=                           0.180140 (Hartree/Particle)
 Thermal correction to Energy=                    0.192748
 Thermal correction to Enthalpy=                  0.193692
 Thermal correction to Gibbs Free Energy=         0.137622
 Sum of electronic and zero-point Energies=          -3180.857317
 Sum of electronic and thermal Energies=             -3180.844709
 Sum of electronic and thermal Enthalpies=           -3180.843765
 Sum of electronic and thermal Free Energies=        -3180.899835

                     E (Thermal)             CV                S
                      KCal/Mol        Cal/Mol-Kelvin    Cal/Mol-Kelvin
 Total                  120.951             47.047            118.010
 Electronic               0.000              0.000              0.000
 Translational            0.889              2.981             42.612
 Rotational               0.889              2.981             33.465
 Vibrational            119.174             41.085             41.933
 Vibration     1          0.593              1.986              6.868
 Vibration     2          0.594              1.983              5.680
 Vibration     3          0.598              1.970              4.255
 Vibration     4          0.603              1.953              3.554
 Vibration     5          0.620              1.896              2.601
 Vibration     6          0.620              1.895              2.588
 Vibration     7          0.631              1.862              2.287
 Vibration     8          0.640              1.832              2.081
 Vibration     9          0.680              1.711              1.535
 Vibration    10          0.691              1.679              1.433
 Vibration    11          0.722              1.590              1.199
 Vibration    12          0.773              1.451              0.931
 Vibration    13          0.776              1.445              0.921
 Vibration    14          0.810              1.359              0.793
 Vibration    15          0.880              1.194              0.598
 Vibration    16          0.909              1.132              0.537

 Optimization completed.
    -- Stationary point found.
 Normal termination of Gaussian 16 at Tue Sep 17 09:58:36 2024.

 ----------------------------------------------------------------------
 #p M062X/def2tzvp geom=check guess=read scf(xqc,tight) integral(grid=u
 ltrafine) scrf(SMD, solvent=1,4-Dioxane) polar prop=efg volume
 ----------------------------------------------------------------------

 ---
 spe
 ---
 Structure from the checkpoint file:  "smiles_00023_conf_4.chk"
 Charge =  0 Multiplicity = 1

 SCF Done:  E(RM062X) =  -3183.45854746     A.U. after   12 cycles

  Exact polarizability:     286.242      -6.028     183.824      -0.000      -0.002     109.180
 Approx polarizability:     259.716      -2.134     222.609       0.001      -0.003     134.197

 Normal termination of Gaussian 16 at Tue Sep 17 10:58:36 2024.
 Gaussian 16:  ES64L-G16RevC.02  7-Dec-2021

 ----------------------------------------------------------------------
 #p M062X/def2tzvp geom=check guess=read scf(xqc,tight) integral(grid=u
 ltrafine) scrf(SMD, solvent=1,4-Dioxane) nmr=giao
 ----------------------------------------------------------------------

 ---
 spe
 ---
 Structure from the checkpoint file:  "smiles_00023_conf_4.chk"
 Charge =  0 Multiplicity = 1

                         Standard orientation:
 ---------------------------------------------------------------------
 Center     Atomic      Atomic             Coordinates (Angstroms)
 Number     Number       Type             X           Y           Z
 ---------------------------------------------------------------------
      1         35           0       -4.081760   -0.854838   -0.000091
      2          6           0       -2.549684    0.284524   -0.000007
      3          6           0       -2.732690    1.667731    0.000029
      4          6           0       -1.610400    2.495158    0.000085
      5          6           0       -0.327896    1.952563    0.000109
      6          6           0       -0.162143    0.561012    0.000077
      7          6           0        1.163638   -0.039908    0.000113
      8          7           0        1.485839   -1.298819    0.000331
      9          7           0        2.879413   -1.356537    0.000297
     10          6           0        3.300724   -0.127091    0.000084
     11          6           0        4.675372    0.375144    0.000015
     12          6           0        5.736674   -0.416569   -0.747681
     13          6           0        5.736784   -0.416887    0.747176
     14          8           0        2.271228    0.770145   -0.000077
     15          6           0       -1.283483   -0.283124    0.000018
     16          1           0       -3.733123    2.083435    0.000012
     17          1           0       -1.741111    3.572397    0.000108
     18          1           0        0.543398    2.596800    0.000148
     19          1           0        4.751538    1.456434    0.000217
     20          1           0        6.496487    0.152904   -1.272569
     21          1           0        5.393877   -1.313034   -1.252613
     22          1           0        6.496710    0.152256    1.272247
     23          1           0        5.393936   -1.313529    1.251766
     24          1           0       -1.148093   -1.357313   -0.000011
 ---------------------------------------------------------------------

 SCF Done:  E(RM062X) =  -3183.45854746     A.U. after    1 cycles

      1  Br   Isotropic =  2060.3867   Anisotropy =  1324.8923

      2  C    Isotropic =    22.9843   Anisotropy =   147.4852

      3  C    Isotropic =    27.1538   Anisotropy =   188.2933

      4  C    Isotropic =    33.3203   Anisotropy =   215.0424

      5  C    Isotropic =    39.7812   Anisotropy =   211.7448

      6  C    Isotropic =    37.3016   Anisotropy =   192.5088

      7  C    Isotropic =     0.1693   Anisotropy =   104.2182

      8  N    Isotropic =  -119.0121   Anisotropy =   405.2683

      9  N    Isotropic =  -100.3806   Anisotropy =   374.0110

     10  C    Isotropic =    -8.9078   Anisotropy =   124.2201

     11  C    Isotropic =   178.7885   Anisotropy =    77.8792

     12  C    Isotropic =   173.4687   Anisotropy =    49.5033

     13  C    Isotropic =   173.4736   Anisotropy =    49.4977

     14  O    Isotropic =   -20.3960   Anisotropy =   229.8270

     15  C    Isotropic =    33.2125   Anisotropy =   185.3737

     16  H    Isotropic =    23.4537   Anisotropy =    10.4757

     17  H    Isotropic =    23.5938   Anisotropy =     6.2154

     18  H    Isotropic =    23.1463   Anisotropy =     9.0743

     19  H    Isotropic =    29.8230   Anisotropy =    14.0527

     20  H    Isotropic =    30.5771   Anisotropy =    15.0755

     21  H    Isotropic =    30.4060   Anisotropy =    12.4924

     22  H    Isotropic =    30.5769   Anisotropy =    15.0747

     23  H    Isotropic =    30.4054   Anisotropy =    12.4944

     24  H    Isotropic =    22.4026   Anisotropy =    13.0373

 The electronic state is 1-A.
 Alpha  occ. eigenvalues -- -485.37928 -63.36404 -57.18351 -57.18113 -57.18106
 Alpha  occ. eigenvalues --  -19.72394 -14.78521 -14.77933 -10.64981 -10.64887
 Alpha  occ. eigenvalues --  -10.61255 -10.58364 -10.57280 -10.56791 -10.56638
 Alpha  occ. eigenvalues --  -10.56498 -10.56324 -10.55403 -10.55359  -9.03047
 Alpha  occ. eigenvalues --   -6.85460  -6.84577  -6.84553  -2.88837  -2.88518
 Alpha  occ. eigenvalues --   -2.88491  -2.87668  -2.87667  -1.28766  -1.09581
 Alpha  occ. eigenvalues --   -1.00267  -0.98622  -0.94156  -0.90495  -0.86732
 Alpha  occ. eigenvalues --   -0.82873  -0.77823  -0.75380  -0.70175  -0.69749
 Alpha  occ. eigenvalues --   -0.67926  -0.66904  -0.61945  -0.59825  -0.58932
 Alpha  occ. eigenvalues --   -0.56941  -0.55191  -0.54117  -0.53198  -0.50921
 Alpha  occ. eigenvalues --   -0.48999  -0.47755  -0.46699  -0.44187  -0.44043
 Alpha  occ. eigenvalues --   -0.42064  -0.41935  -0.41218  -0.40394  -0.38461
 Alpha  occ. eigenvalues --   -0.37939  -0.36074  -0.35549  -0.34903  -0.31062
 Alpha  occ. eigenvalues --   -0.29172
 Alpha virt. eigenvalues --   -0.03163   0.00028   0.03256   0.04237   0.07799
 Alpha virt. eigenvalues --    0.08529   0.08896   0.09908   0.10367   0.11297
 Alpha virt. eigenvalues --    0.11733   0.12959   0.13629   0.14730   0.15115

 Mulliken charges:
               1
     1  Br  -0.099528
     2  C    0.056797
     3  C   -0.161027
     4  C   -0.143750
     5  C   -0.216951
     6  C    0.043335
     7  C    0.303896
     8  N   -0.198797
     9  N   -0.228906
    10  C    0.309922
    11  C   -0.243044
    12  C   -0.258542
    13  C   -0.258515
    14  O   -0.267698
    15  C   -0.201602
    16  H    0.182948
    17  H    0.171701
    18  H    0.177137
    19  H    0.162388
    20  H    0.158356
    21  H    0.173766
    22  H    0.158356
    23  H    0.173766
    24  H    0.205993
 Sum of Mulliken charges =  -0.00000

 Dipole moment (field-independent basis, Debye):
    X=              2.4754    Y=              4.9501    Z=             -0.0006  Tot=              5.5345
 Quadrupole moment (field-independent basis, Debye-Ang):
   XX=            -80.8059   YY=            -97.0574   ZZ=           -101.3166
   XY=              4.2024   XZ=             -0.0017   YZ=              0.0024

 Normal termination of Gaussian 16 at Tue Sep 17 11:20:08 2024.
