 Gaussian 16, Revision C.02,

 ----------------------------------------------------------------------
 #p B3LYP/6-31G(d,p) EmpiricalDispersion=GD3BJ opt freq scf(xqc,tight)
 integral(grid=ultrafine)
 ----------------------------------------------------------------------

 ----------------------------------
 opt-freq conformers_unique/conf_af
 ----------------------------------
 Symbolic Z-matrix:
 Charge =  0 Multiplicity = 1

 SCF Done:  E(RB3LYP) =  -1163.67031728     A.U. after   15 cycles
 SCF Done:  E(RB3LYP) =  -1163.67029025     A.U. after   13 cycles
 SCF Done:  E(RB3LYP) =  -1163.67209985     A.U. after   13 cycles
 SCF Done:  E(RB3LYP) =  -1163.67199179     A.U. after   13 cycles
 SCF Done:  E(RB3LYP) =  -1163.67249075     A.U. after   13 cycles
 SCF Done:  E(RB3LYP) =  -1163.67262644     A.U. after   11 cycles
 SCF Done:  E(RB3LYP) =  -1163.67271898     A.U. after   12 cycles
 SCF Done:  E(RB3LYP) =  -1163.67274683     A.U. after   13 cycles
 SCF Done:  E(RB3LYP) =  -1163.67279598     A.U. after   10 cycles
 SCF Done:  E(RB3LYP) =  -1163.67276180     A.U. after   12 cycles
 SCF Done:  E(RB3LYP) =  -1163.67288203     A.U. after   12 cycles
 SCF Done:  E(RB3LYP) =  -1163.67287585     A.U. after   11 cycles
 SCF Done:  E(RB3LYP) =  -1163.67288829     A.U. after   11 cycles
 SCF Done:  E(RB3LYP) =  -1163.67288510     A.U. after   10 cycles
 SCF Done:  E(RB3LYP) =  -1163.67288881     A.U. after   10 cycles
 SCF Done:  E(RB3LYP) =  -1163.67288865     A.U. after    8 cycles
 SCF Done:  E(RB3LYP) =  -1163.67288888     A.U. after    8 cycles
 Optimization completed.
    -- Stationary point found.
 Normal termination of Gaussian 16 at Tue Sep 17 09:48:43 2024.

 ----------------------------------------------------------------------
 #P Geom=AllCheck Guess=TCheck SCRF=Check GenChk RB3LYP/6-31G(d,p) Freq
 ----------------------------------------------------------------------

 Structure from the checkpoint file:  "smiles_00058_conf_5.chk"
 ----------------------------------
 opt-freq conformers_unique/conf_af
 ----------------------------------
 Charge =  0 Multiplicity = 1

 SCF Done:  E(RB3LYP) =  -1163.67288888     A.U. after    1 cycles

                      1                      2                      3
                      A                      A                      A
 Frequencies --     29.9754                40.8725                83.6947
 Red. masses --      5.0556                 6.0220                 4.6838
 Frc consts  --      0.0027                 0.0059                 0.0193
 IR Inten    --      3.3704                 2.7537                 0.8248

                      4                      5                      6
                      A                      A                      A
 Frequencies --     96.4582               121.5071               125.5496
 Red. masses --      5.1776                 3.3226                 1.2795
 Frc consts  --      0.0284                 0.0289                 0.0119
 IR Inten    --      0.6093                 4.4714                 0.4114

                      7                      8                      9
                      A                      A                      A
 Frequencies --    141.0455               150.3713               186.8852
 Red. masses --      4.6234                 7.1671                 4.2544
 Frc consts  --      0.0542                 0.0955                 0.0875
 IR Inten    --      3.8507                 2.2153                 3.6129

                     10                     11                     12
                      A                      A                      A
 Frequencies --    202.6062               220.6413               249.9573
 Red. masses --      1.9819                 1.9480                 4.5142
 Frc consts  --      0.0479                 0.0559                 0.1662
 IR Inten    --      0.2422                 0.5557                 9.0412

                     13                     14                     15
                      A                      A                      A
 Frequencies --    298.1590               327.6273               357.2117
 Red. masses --      4.4694                 7.5986                 6.4265
 Frc consts  --      0.2341                 0.4806                 0.4831
 IR Inten    --      1.9259                 5.3628                 6.4908

                     16                     17                     18
                      A                      A                      A
 Frequencies --    404.1274               412.7176               477.7643
 Red. masses --      8.7794                 6.2484                 6.1967
 Frc consts  --      0.8448                 0.6271                 0.8334
 IR Inten    --      5.3020                 0.9453                 2.5417

                     19                     20                     21
                      A                      A                      A
 Frequencies --    505.0741               536.3155               587.1918
 Red. masses --      8.2596                 6.7534                 6.7181
 Frc consts  --      1.2414                 1.1445                 1.3648
 IR Inten    --      5.3516                14.9336                 4.5608

                     22                     23                     24
                      A                      A                      A
 Frequencies --    656.9108               696.5453               763.2698
 Red. masses --      7.7285                 6.6907                 6.9814
 Frc consts  --      1.9650                 1.9126                 2.3964
 IR Inten    --     28.1365                13.5172                48.8285

                     25                     26                     27
                      A                      A                      A
 Frequencies --    784.9453               789.5342               827.8185
 Red. masses --      4.3716                 7.3055                 9.7628
 Frc consts  --      1.5870                 2.6831                 3.9418
 IR Inten    --     13.3845                 1.1945                86.1309

                     28                     29                     30
                      A                      A                      A
 Frequencies --    889.4170               915.6612               940.6520
 Red. masses --      6.4992                 1.5596                 1.4132
 Frc consts  --      3.0291                 0.7704                 0.7368
 IR Inten    --      1.7290                15.2877                 1.2339

                     31                     32                     33
                      A                      A                      A
 Frequencies --   1018.8961              1020.7962              1063.0787
 Red. masses --      7.8386                 7.1929                 8.1532
 Frc consts  --      4.7945                 4.4160                 5.4289
 IR Inten    --     15.5878                42.9243                14.6823

                     34                     35                     36
                      A                      A                      A
 Frequencies --   1122.4242              1165.3298              1171.9466
 Red. masses --      1.4680                 1.8403                 1.3040
 Frc consts  --      1.0897                 1.4724                 1.0553
 IR Inten    --     24.4097                39.8500                 4.2013

                     37                     38                     39
                      A                      A                      A
 Frequencies --   1180.1064              1187.4989              1212.9129
 Red. masses --      1.2757                 1.8366                 1.5683
 Frc consts  --      1.0467                 1.5259                 1.3594
 IR Inten    --      0.8386                40.4391                20.4874

                     40                     41                     42
                      A                      A                      A
 Frequencies --   1229.3212              1282.5448              1329.8949
 Red. masses --      2.5745                 3.8245                 9.0129
 Frc consts  --      2.2923                 3.7065                 9.3918
 IR Inten    --    147.7511               464.8080                61.1556

                     43                     44                     45
                      A                      A                      A
 Frequencies --   1341.2013              1436.8015              1469.3205
 Red. masses --      5.7871                 3.6525                 2.9739
 Frc consts  --      6.1334                 4.4425                 3.7828
 IR Inten    --    316.3454                23.5203                 3.5036

                     46                     47                     48
                      A                      A                      A
 Frequencies --   1484.5821              1495.6764              1499.6588
 Red. masses --      1.4287                 1.0461                 1.1390
 Frc consts  --      1.8552                 1.3787                 1.5092
 IR Inten    --     21.7819                 7.1424                 1.4994

                     49                     50                     51
                      A                      A                      A
 Frequencies --   1502.9898              1505.5461              1509.1737
 Red. masses --      1.0859                 1.1058                 1.0523
 Frc consts  --      1.4452                 1.4768                 1.4122
 IR Inten    --     53.8957                32.0624                 6.1027

                     52                     53                     54
                      A                      A                      A
 Frequencies --   1610.2695              1620.3105              1807.8402
 Red. masses --      6.4879                 9.5343                12.5926
 Frc consts  --      9.9117                14.7481                24.2485
 IR Inten    --    108.5938                20.3951               245.3560

                     55                     56                     57
                      A                      A                      A
 Frequencies --   1831.1686              3069.4884              3071.0112
 Red. masses --     11.9676                 1.0297                 1.0313
 Frc consts  --     23.6436                 5.7160                 5.7306
 IR Inten    --    196.6093                30.8899                33.0551

                     58                     59                     60
                      A                      A                      A
 Frequencies --   3148.8094              3152.9955              3183.0033
 Red. masses --      1.1072                 1.1063                 1.1074
 Frc consts  --      6.4681                 6.4796                 6.6104
 IR Inten    --     16.5928                37.5828                12.8807

                     61                     62                     63
                      A                      A                      A
 Frequencies --   3188.4376              3253.5658              3257.3787
 Red. masses --      1.1069                 1.0931                 1.0928
 Frc consts  --      6.6301                 6.8177                 6.8318
 IR Inten    --      8.0864                 5.6878                 2.2075

 - Thermochemistry -
 -------------------
 Temperature   298.150 Kelvin.  Pressure   1.00000 Atm.
 Atom     1 has atomic number  6 and mass  12.00000

 Molecular mass:   229.01419 amu.
 Principal axes and moments of inertia in atomic units:
                           1         2         3
     Eigenvalues --  3300.371544255.230707403.68665
           X            0.99998  -0.00216  -0.00528
           Y            0.00211   0.99995  -0.00955
           Z            0.00530   0.00954   0.99994
 This molecule is an asymmetric top.
 Rotational symmetry number  1.
 Warning -- assumption of classical behavior for rotation
           may cause significant error
 Rotational temperatures (Kelvin)      0.02624     0.02035     0.01170
 Rotational constants (GHZ):           0.54683     0.42412     0.24376
 Zero-point vibrational energy     432118.0 (Joules/Mol)
                                  103.27868 (Kcal/Mol)
 Warning -- explicit consideration of  21 degrees of freedom as
           vibrations may cause significant error
 Vibrational temperatures:     43.13    58.81   120.42   138.78   174.82
          (Kelvin)            180.64   202.93   216.35   268.89   291.51
                              317.45   359.63   428.98   471.38   513.95
                              581.45   593.81   687.40   726.69   771.64
                              844.84   945.15  1002.17  1098.17  1129.36
                             1135.96  1191.05  1279.67  1317.43  1353.39
                             1465.96  1468.70  1529.53  1614.92  1676.65
                             1686.17  1697.91  1708.55  1745.11  1768.72
                             1845.30  1913.42  1929.69  2067.24  2114.02
                             2135.98  2151.94  2157.67  2162.47  2166.15
                             2171.36  2316.82  2331.27  2601.08  2634.64
                             4416.31  4418.50  4530.43  4536.46  4579.63
                             4587.45  4681.16  4686.64

 Zero-point correction=                           0.164585 (Hartree/Particle)
 Thermal correction to Energy=                    0.179115
 Thermal correction to Enthalpy=                  0.180060
 Thermal correction to Gibbs Free Energy=         0.121162
 Sum of electronic and zero-point Energies=          -1163.508304
 Sum of electronic and thermal Energies=             -1163.493773
 Sum of electronic and thermal Enthalpies=           -1163.492829
 Sum of electronic and thermal Free Energies=        -1163.551726

                     E (Thermal)             CV                S
                      KCal/Mol        Cal/Mol-Kelvin    Cal/Mol-Kelvin
 Total                  112.397             50.908            123.960
 Electronic               0.000              0.000              0.000
 Translational            0.889              2.981             42.188
 Rotational               0.889              2.981             33.008
 Vibrational            110.619             44.946             48.764
 Vibration     1          0.594              1.984              5.831
 Vibration     2          0.594              1.981              5.216
 Vibration     3          0.601              1.960              3.802
 Vibration     4          0.603              1.952              3.525
 Vibration     5          0.609              1.931              3.076
 Vibration     6          0.610              1.928              3.013
 Vibration     7          0.615              1.912              2.790
 Vibration     8          0.618              1.902              2.668
 Vibration     9          0.632              1.858              2.259
 Vibration    10          0.639              1.836              2.109
 Vibration    11          0.647              1.810              1.954
 Vibration    12          0.663              1.763              1.731
 Vibration    13          0.691              1.677              1.427
 Vibration    14          0.711              1.620              1.272
 Vibration    15          0.732              1.560              1.134
 Vibration    16          0.769              1.461              0.948
 Vibration    17          0.776              1.443              0.917
 Vibration    18          0.834              1.299              0.716
 Vibration    19          0.860              1.239              0.646
 Vibration    20          0.891              1.170              0.573
 Vibration    21          0.944              1.059              0.472

                           ! Non-Optimized Parameters !
 Normal termination of Gaussian 16 at Tue Sep 17 09:50:44 2024.

 ----------------------------------------------------------------------
 #p M062X/def2tzvp geom=check guess=read scf(xqc,tight) integral(grid=u
 ltrafine) scrf(SMD, solvent=1,4-Dioxane) polar prop=efg volume
 ----------------------------------------------------------------------

 ---
 spe
 ---
 Structure from the checkpoint file:  "smiles_00058_conf_5.chk"
 Charge =  0 Multiplicity = 1

 SCF Done:  E(RM062X) =  -1163.63323570     A.U. after   13 cycles

  Exact polarizability:     184.072      -3.609     189.848       3.630      -0.858      89.431
 Approx polarizability:     189.611      -4.043     206.627       5.393       1.033     111.091

 Normal termination of Gaussian 16 at Tue Sep 17 10:59:32 2024.
 Gaussian 16:  ES64L-G16RevC.02  7-Dec-2021

 ----------------------------------------------------------------------
 #p M062X/def2tzvp geom=check guess=read scf(xqc,tight) integral(grid=u
 ltrafine) scrf(SMD, solvent=1,4-Dioxane) nmr=giao
 ----------------------------------------------------------------------

 ---
 spe
 ---
 Structure from the checkpoint file:  "smiles_00058_conf_5.chk"
 Charge =  0 Multiplicity = 1

                         Standard orientation:
 ---------------------------------------------------------------------
 Center     Atomic      Atomic             Coordinates (Angstroms)
 Number     Number       Type             X           Y           Z
 ---------------------------------------------------------------------
      1          6           0       -1.810779   -2.941951    0.728934
      2          8           0       -2.799887   -2.172336    0.014672
      3          6           0       -2.708194   -0.860975   -0.246441
      4          8           0       -3.685608   -0.257067   -0.634928
      5          6           0       -1.392300   -0.128369   -0.095940
      6          6           0       -1.449345    1.269540   -0.005020
      7          6           0       -0.244795    1.955240    0.074724
      8         17           0       -0.234802    3.696467    0.205164
      9          6           0        0.961640    1.257510    0.045281
     10          6           0        0.897979   -0.134199   -0.059454
     11          6           0        2.139880   -0.983441   -0.090814
     12          8           0        2.142600   -2.192370   -0.110861
     13          8           0        3.254070   -0.221738   -0.087486
     14          6           0        4.491216   -0.954647   -0.109372
     15          7           0       -0.250968   -0.814059   -0.125076
     16          1           0       -0.952652   -3.166097    0.098268
     17          1           0       -1.467643   -2.413762    1.621262
     18          1           0       -2.334397   -3.853151    1.021071
     19          1           0       -2.406806    1.773116   -0.012442
     20          1           0        1.913198    1.767816    0.101161
     21          1           0        4.567615   -1.597931    0.770043
     22          1           0        4.549782   -1.573757   -1.007167
     23          1           0        5.278114   -0.201905   -0.107002
 ---------------------------------------------------------------------

 SCF Done:  E(RM062X) =  -1163.63323570     A.U. after    1 cycles

      1  C    Isotropic =   121.4628   Anisotropy =    75.8944

      2  O    Isotropic =   134.2097   Anisotropy =   178.1582

      3  C    Isotropic =     1.3018   Anisotropy =    99.7295

      4  O    Isotropic =  -171.7104   Anisotropy =   687.0823

      5  C    Isotropic =     9.8581   Anisotropy =   173.9763

      6  C    Isotropic =    31.0984   Anisotropy =   198.4303

      7  C    Isotropic =     6.3651   Anisotropy =   175.1887

      8  Cl   Isotropic =   650.3663   Anisotropy =   490.7490

      9  C    Isotropic =    34.9190   Anisotropy =   191.2585

     10  C    Isotropic =    15.6988   Anisotropy =   168.8630

     11  C    Isotropic =     3.6820   Anisotropy =    94.8715

     12  O    Isotropic =  -148.9332   Anisotropy =   731.0411

     13  O    Isotropic =   131.9885   Anisotropy =   170.1132

     14  C    Isotropic =   129.9231   Anisotropy =    73.6782

     15  N    Isotropic =  -143.9225   Anisotropy =   661.3710

     16  H    Isotropic =    26.1565   Anisotropy =     7.4645

     17  H    Isotropic =    27.7398   Anisotropy =     5.4006

     18  H    Isotropic =    27.7720   Anisotropy =     7.6259

     19  H    Isotropic =    22.5857   Anisotropy =    11.6730

     20  H    Isotropic =    22.7480   Anisotropy =    12.8611

     21  H    Isotropic =    27.8541   Anisotropy =     8.0618

     22  H    Isotropic =    27.8325   Anisotropy =     8.1534

     23  H    Isotropic =    27.9146   Anisotropy =     7.5480

 The electronic state is 1-A.
 Alpha  occ. eigenvalues -- -102.66973 -19.68825 -19.67443 -19.63371 -19.62147
 Alpha  occ. eigenvalues --  -14.78465 -10.69188 -10.68804 -10.64481 -10.62108
 Alpha  occ. eigenvalues --  -10.62089 -10.59681 -10.58950 -10.58738 -10.58654
 Alpha  occ. eigenvalues --   -9.83213  -7.55418  -7.54898  -7.54870  -1.24819
 Alpha  occ. eigenvalues --   -1.23311  -1.15630  -1.14652  -1.09413  -1.00356
 Alpha  occ. eigenvalues --   -0.91768  -0.90088  -0.83911  -0.82346  -0.77475
 Alpha  occ. eigenvalues --   -0.75303  -0.67728  -0.66135  -0.62961  -0.61474
 Alpha  occ. eigenvalues --   -0.59087  -0.58672  -0.58210  -0.56748  -0.56709
 Alpha  occ. eigenvalues --   -0.55287  -0.52051  -0.51487  -0.50447  -0.49528
 Alpha  occ. eigenvalues --   -0.48392  -0.47965  -0.47299  -0.44663  -0.44341
 Alpha  occ. eigenvalues --   -0.42760  -0.40302  -0.39177  -0.38677  -0.37619
 Alpha  occ. eigenvalues --   -0.37093  -0.35197  -0.34991  -0.34475
 Alpha virt. eigenvalues --   -0.05130  -0.04407   0.04244   0.05050   0.07437
 Alpha virt. eigenvalues --    0.08755   0.09460   0.10523   0.10964   0.12225
 Alpha virt. eigenvalues --    0.12325   0.13098   0.14444   0.15132   0.15536

 Mulliken charges:
               1
     1  C   -0.275358
     2  O   -0.226912
     3  C    0.350032
     4  O   -0.337658
     5  C    0.090787
     6  C   -0.180336
     7  C    0.098776
     8  Cl  -0.050986
     9  C   -0.174282
    10  C    0.104557
    11  C    0.331744
    12  O   -0.327098
    13  O   -0.272160
    14  C   -0.269940
    15  N   -0.254800
    16  H    0.175215
    17  H    0.163798
    18  H    0.161511
    19  H    0.205754
    20  H    0.198598
    21  H    0.163786
    22  H    0.164976
    23  H    0.159997
 Sum of Mulliken charges =  -0.00000

 Dipole moment (field-independent basis, Debye):
    X=              5.4653    Y=              1.3161    Z=              1.8907  Tot=              5.9309
 Quadrupole moment (field-independent basis, Debye-Ang):
   XX=            -94.7721   YY=            -93.7087   ZZ=            -91.5449
   XY=              0.0407   XZ=             -5.8287   YZ=             -3.1989

 Normal termination of Gaussian 16 at Tue Sep 17 11:25:05 2024.
