 Gaussian 16, Revision C.02,

 ----------------------------------------------------------------------
 #p B3LYP/gen pseudo=read EmpiricalDispersion=GD3BJ opt freq scf(xqc,ti
 ght) integral(grid=ultrafine)
 ----------------------------------------------------------------------

 ----------------------------------
 opt-freq conformers_unique/conf_ac
 ----------------------------------
 Symbolic Z-matrix:
 Charge =  0 Multiplicity = 1

 SCF Done:  E(RB3LYP) =  -550.309105183     A.U. after   15 cycles
 SCF Done:  E(RB3LYP) =  -550.310605233     A.U. after   12 cycles
 SCF Done:  E(RB3LYP) =  -550.310656151     A.U. after   11 cycles
 SCF Done:  E(RB3LYP) =  -550.310687376     A.U. after   11 cycles
 SCF Done:  E(RB3LYP) =  -550.310690676     A.U. after    8 cycles
 SCF Done:  E(RB3LYP) =  -550.310691083     A.U. after    8 cycles
 SCF Done:  E(RB3LYP) =  -550.310691643     A.U. after    8 cycles
 SCF Done:  E(RB3LYP) =  -550.310695704     A.U. after   11 cycles
 SCF Done:  E(RB3LYP) =  -550.310704544     A.U. after   12 cycles
 SCF Done:  E(RB3LYP) =  -550.310701648     A.U. after   12 cycles
 SCF Done:  E(RB3LYP) =  -550.310929047     A.U. after   12 cycles
 SCF Done:  E(RB3LYP) =  -550.310949345     A.U. after   14 cycles
 SCF Done:  E(RB3LYP) =  -550.311012200     A.U. after   13 cycles
 SCF Done:  E(RB3LYP) =  -550.311152739     A.U. after   11 cycles
 SCF Done:  E(RB3LYP) =  -550.311174187     A.U. after   12 cycles
 SCF Done:  E(RB3LYP) =  -550.311177996     A.U. after   10 cycles
 SCF Done:  E(RB3LYP) =  -550.311178420     A.U. after    8 cycles
 Optimization completed.
    -- Stationary point found.
 Normal termination of Gaussian 16 at Tue Sep 17 09:53:43 2024.

 ------------------------------------------------------------------
 #P Geom=AllCheck Guess=TCheck SCRF=Check GenChk RB3LYP/ChkBas Freq
 ------------------------------------------------------------------

 Structure from the checkpoint file:  "smiles_00094_conf_2.chk"
 ----------------------------------
 opt-freq conformers_unique/conf_ac
 ----------------------------------
 Charge =  0 Multiplicity = 1

 SCF Done:  E(RB3LYP) =  -550.311178420     A.U. after    1 cycles

                      1                      2                      3
                      A                      A                      A
 Frequencies --     36.5627                52.5612                91.8445
 Red. masses --      4.1054                 6.9236                 8.1840
 Frc consts  --      0.0032                 0.0113                 0.0407
 IR Inten    --      1.3412                 2.5133                 0.9840

                      4                      5                      6
                      A                      A                      A
 Frequencies --    141.2204               185.2787               207.1340
 Red. masses --      7.0704                10.8063                 4.3957
 Frc consts  --      0.0831                 0.2186                 0.1111
 IR Inten    --      0.6125                 0.1128                 0.2643

                      7                      8                      9
                      A                      A                      A
 Frequencies --    226.0766               235.4450               283.4798
 Red. masses --      1.3890                 3.6192                 4.8821
 Frc consts  --      0.0418                 0.1182                 0.2312
 IR Inten    --      0.4888                 1.3240                 4.1628

                     10                     11                     12
                      A                      A                      A
 Frequencies --    347.6239               395.2137               454.6238
 Red. masses --      5.8079                 6.2953                 3.2596
 Frc consts  --      0.4135                 0.5793                 0.3969
 IR Inten    --      1.7813                 8.4418                 3.0416

                     13                     14                     15
                      A                      A                      A
 Frequencies --    490.7459               534.9673               550.2881
 Red. masses --      4.8412                 2.6238                 3.3851
 Frc consts  --      0.6869                 0.4424                 0.6040
 IR Inten    --     19.0398                17.7266                 2.5084

                     16                     17                     18
                      A                      A                      A
 Frequencies --    579.5892               582.1861               665.2449
 Red. masses --      5.1809                 4.4305                 3.6077
 Frc consts  --      1.0254                 0.8848                 0.9407
 IR Inten    --      6.4227                 2.5956                24.6304

                     19                     20                     21
                      A                      A                      A
 Frequencies --    681.5293               704.1000               799.7092
 Red. masses --      1.8427                 4.5100                 3.3713
 Frc consts  --      0.5043                 1.3173                 1.2703
 IR Inten    --     72.5092                 4.4609                 8.2151

                     22                     23                     24
                      A                      A                      A
 Frequencies --    824.1187               861.0290               876.2764
 Red. masses --      1.5024                 7.2827                 1.3452
 Frc consts  --      0.6012                 3.1811                 0.6086
 IR Inten    --     19.4244                72.8799                15.9582

                     25                     26                     27
                      A                      A                      A
 Frequencies --    933.7067               950.1447              1029.1607
 Red. masses --      4.1248                 1.3046                 1.5983
 Frc consts  --      2.1187                 0.6939                 0.9974
 IR Inten    --     10.9809                 0.9496                25.8461

                     28                     29                     30
                      A                      A                      A
 Frequencies --   1057.8440              1092.6242              1149.9188
 Red. masses --      1.7371                 1.8917                 2.1544
 Frc consts  --      1.1453                 1.3306                 1.6785
 IR Inten    --      8.6030                 7.1915                20.7359

                     31                     32                     33
                      A                      A                      A
 Frequencies --   1221.6975              1268.4366              1317.7943
 Red. masses --      1.6746                 1.7568                 3.1623
 Frc consts  --      1.4726                 1.6653                 3.2356
 IR Inten    --      4.5036                48.1608                57.1229

                     34                     35                     36
                      A                      A                      A
 Frequencies --   1335.3015              1365.1594              1412.0287
 Red. masses --      2.8097                 3.3519                 1.4621
 Frc consts  --      2.9517                 3.6805                 1.7176
 IR Inten    --    265.4275                91.0654               121.4579

                     37                     38                     39
                      A                      A                      A
 Frequencies --   1452.1636              1478.7512              1486.6404
 Red. masses --      3.5475                 1.8998                 1.0599
 Frc consts  --      4.4076                 2.4476                 1.3802
 IR Inten    --     21.5431                32.1396                20.4503

                     40                     41                     42
                      A                      A                      A
 Frequencies --   1500.7429              1549.3701              1632.9458
 Red. masses --      1.0697                 3.3381                 6.7723
 Frc consts  --      1.4195                 4.7213                10.6397
 IR Inten    --     10.4190               332.1314                22.6975

                     43                     44                     45
                      A                      A                      A
 Frequencies --   1657.7961              1802.2576              3062.8945
 Red. masses --      7.0890                 8.2616                 1.0391
 Frc consts  --     11.4788                15.8105                 5.7434
 IR Inten    --      5.8570               518.3468                 3.0127

                     46                     47                     48
                      A                      A                      A
 Frequencies --   3134.3359              3176.9398              3224.7372
 Red. masses --      1.0984                 1.1031                 1.0903
 Frc consts  --      6.3578                 6.5600                 6.6801
 IR Inten    --      6.9831                 7.6444                 0.3489

                     49                     50                     51
                      A                      A                      A
 Frequencies --   3238.7281              3249.0171              3603.6456
 Red. masses --      1.0927                 1.0924                 1.0752
 Frc consts  --      6.7531                 6.7942                 8.2268
 IR Inten    --      1.4928                 3.4969                46.9687

 - Thermochemistry -
 -------------------
 Temperature   298.150 Kelvin.  Pressure   1.00000 Atm.
 Atom     1 has atomic number  6 and mass  12.00000

 Molecular mass:   278.95157 amu.
 Principal axes and moments of inertia in atomic units:
                           1         2         3
     Eigenvalues --   981.655358702.671209579.46838
           X            0.99981  -0.01923   0.00362
           Y            0.01926   0.99978  -0.00836
           Z           -0.00346   0.00843   0.99996
 This molecule is an asymmetric top.
 Rotational symmetry number  1.
 Warning -- assumption of classical behavior for rotation
           may cause significant error
 Rotational temperatures (Kelvin)      0.08823     0.00995     0.00904
 Rotational constants (GHZ):           1.83847     0.20738     0.18840
 Zero-point vibrational energy     360025.9 (Joules/Mol)
                                   86.04826 (Kcal/Mol)
 Warning -- explicit consideration of  17 degrees of freedom as
           vibrations may cause significant error
 Vibrational temperatures:     52.61    75.62   132.14   203.18   266.57
          (Kelvin)            298.02   325.27   338.75   407.86   500.15
                              568.62   654.10   706.07   769.70   791.74
                              833.90   837.64   957.14   980.57  1013.04
                             1150.60  1185.72  1238.83  1260.77  1343.40
                             1367.05  1480.73  1522.00  1572.04  1654.48
                             1757.75  1825.00  1896.01  1921.20  1964.16
                             2031.59  2089.34  2127.59  2138.94  2159.23
                             2229.20  2349.44  2385.20  2593.05  4406.82
                             4509.61  4570.91  4639.68  4659.81  4674.61
                             5184.84

 Zero-point correction=                           0.137127 (Hartree/Particle)
 Thermal correction to Energy=                    0.148491
 Thermal correction to Enthalpy=                  0.149435
 Thermal correction to Gibbs Free Energy=         0.097240
 Sum of electronic and zero-point Energies=           -550.174052
 Sum of electronic and thermal Energies=              -550.162687
 Sum of electronic and thermal Enthalpies=            -550.161743
 Sum of electronic and thermal Free Energies=         -550.213939

                     E (Thermal)             CV                S
                      KCal/Mol        Cal/Mol-Kelvin    Cal/Mol-Kelvin
 Total                   93.179             41.272            109.854
 Electronic               0.000              0.000              0.000
 Translational            0.889              2.981             42.776
 Rotational               0.889              2.981             32.770
 Vibrational             91.402             35.311             34.308
 Vibration     1          0.594              1.982              5.437
 Vibration     2          0.596              1.977              4.719
 Vibration     3          0.602              1.955              3.620
 Vibration     4          0.615              1.912              2.787
 Vibration     5          0.631              1.860              2.275
 Vibration     6          0.641              1.830              2.069
 Vibration     7          0.650              1.801              1.910
 Vibration     8          0.655              1.787              1.837
 Vibration     9          0.682              1.704              1.513
 Vibration    10          0.725              1.580              1.177
 Vibration    11          0.762              1.480              0.980
 Vibration    12          0.813              1.351              0.782
 Vibration    13          0.847              1.271              0.682
 Vibration    14          0.890              1.173              0.576
 Vibration    15          0.906              1.139              0.544
 Vibration    16          0.936              1.075              0.486
 Vibration    17          0.939              1.070              0.481

                           ! Non-Optimized Parameters !
 Normal termination of Gaussian 16 at Tue Sep 17 09:55:50 2024.

 ----------------------------------------------------------------------
 #p M062X/def2tzvp geom=check guess=read scf(xqc,tight) integral(grid=u
 ltrafine) scrf(SMD, solvent=1,4-Dioxane) polar prop=efg volume
 ----------------------------------------------------------------------

 ---
 spe
 ---
 Structure from the checkpoint file:  "smiles_00094_conf_2.chk"
 Charge =  0 Multiplicity = 1

 SCF Done:  E(RM062X) =  -836.529117024     A.U. after   23 cycles

  Exact polarizability:     250.237       0.137     141.286      -2.760       3.328      89.676
 Approx polarizability:     239.234       5.561     169.760      -4.390       6.484     113.503

 Normal termination of Gaussian 16 at Tue Sep 17 10:56:48 2024.
 Gaussian 16:  ES64L-G16RevC.02  7-Dec-2021

 ----------------------------------------------------------------------
 #p M062X/def2tzvp geom=check guess=read scf(xqc,tight) integral(grid=u
 ltrafine) scrf(SMD, solvent=1,4-Dioxane) nmr=giao
 ----------------------------------------------------------------------

 ---
 spe
 ---
 Structure from the checkpoint file:  "smiles_00094_conf_2.chk"
 Charge =  0 Multiplicity = 1

                         Standard orientation:
 ---------------------------------------------------------------------
 Center     Atomic      Atomic             Coordinates (Angstroms)
 Number     Number       Type             X           Y           Z
 ---------------------------------------------------------------------
      1          6           0        4.061848   -1.780932    0.578250
      2          6           0        4.319254   -0.387510    0.045147
      3          8           0        5.444912    0.068457   -0.070980
      4          7           0        3.233533    0.403230   -0.311218
      5          6           0        1.853319    0.187967   -0.232252
      6          6           0        1.208026   -1.038592   -0.433408
      7          6           0       -0.180709   -1.145341   -0.341758
      8          6           0       -0.947442   -0.013574   -0.078797
      9         53           0       -3.072559   -0.171530    0.050389
     10          6           0       -0.342614    1.231944    0.090948
     11          6           0        1.037180    1.303152    0.013406
     12          9           0        1.645376    2.501276    0.167993
     13          1           0        4.955554   -2.089039    1.120453
     14          1           0        3.906217   -2.483417   -0.247187
     15          1           0        3.189510   -1.825888    1.234339
     16          1           0        3.514601    1.357423   -0.502129
     17          1           0        1.786091   -1.917864   -0.683263
     18          1           0       -0.652951   -2.107990   -0.495423
     19          1           0       -0.908985    2.133403    0.287816
 ---------------------------------------------------------------------

 SCF Done:  E(RM062X) =  -836.529117024     A.U. after    1 cycles

      1  C    Isotropic =   161.2014   Anisotropy =    34.8409

      2  C    Isotropic =    -4.4015   Anisotropy =   142.7370

      3  O    Isotropic =  -179.4880   Anisotropy =   693.1354

      4  N    Isotropic =   103.4449   Anisotropy =   126.9887

      5  C    Isotropic =    37.1442   Anisotropy =   164.0271

      6  C    Isotropic =    43.2045   Anisotropy =   189.1209

      7  C    Isotropic =    31.0612   Anisotropy =   179.4449

      8  C    Isotropic =    36.6323   Anisotropy =   136.3809

      9  I    Isotropic =   433.7141   Anisotropy =    74.8472

     10  C    Isotropic =    41.6841   Anisotropy =   152.7197

     11  C    Isotropic =    11.9960   Anisotropy =   110.8162

     12  F    Isotropic =   307.0394   Anisotropy =   138.2326

     13  H    Isotropic =    29.7580   Anisotropy =     7.9203

     14  H    Isotropic =    29.5491   Anisotropy =     6.2812

     15  H    Isotropic =    29.5330   Anisotropy =     4.5624

     16  H    Isotropic =    24.5121   Anisotropy =     7.1320

     17  H    Isotropic =    23.9126   Anisotropy =     9.2141

     18  H    Isotropic =    23.8026   Anisotropy =    11.9655

     19  H    Isotropic =    23.8255   Anisotropy =    11.6474

 The electronic state is 1-A.
 Alpha  occ. eigenvalues --  -25.27798 -19.60631 -14.79367 -10.66236 -10.64857
 Alpha  occ. eigenvalues --  -10.61641 -10.60885 -10.57282 -10.57022 -10.56842
 Alpha  occ. eigenvalues --  -10.54638  -7.11148  -5.10509  -5.09439  -5.09438
 Alpha  occ. eigenvalues --   -2.07338  -2.06895  -2.06891  -2.06004  -2.06003
 Alpha  occ. eigenvalues --   -1.39132  -1.17462  -1.06269  -0.98230  -0.87523
 Alpha  occ. eigenvalues --   -0.87282  -0.84407  -0.79038  -0.73681  -0.71977
 Alpha  occ. eigenvalues --   -0.66966  -0.64717  -0.61577  -0.59362  -0.58927
 Alpha  occ. eigenvalues --   -0.55860  -0.53940  -0.53426  -0.52501  -0.50738
 Alpha  occ. eigenvalues --   -0.48879  -0.47713  -0.46917  -0.45461  -0.44174
 Alpha  occ. eigenvalues --   -0.40645  -0.39805  -0.34814  -0.33723  -0.32909
 Alpha  occ. eigenvalues --   -0.32857  -0.28220
 Alpha virt. eigenvalues --   -0.01217  -0.00870   0.00328   0.05558   0.07005
 Alpha virt. eigenvalues --    0.08527   0.10023   0.11725   0.12013   0.13810
 Alpha virt. eigenvalues --    0.14666   0.14905   0.16030   0.16454   0.17407

 Mulliken charges:
               1
     1  C   -0.546954
     2  C    0.357340
     3  O   -0.383260
     4  N   -0.355829
     5  C    0.132962
     6  C   -0.204080
     7  C   -0.210673
     8  C    0.077622
     9  I   -0.083732
    10  C   -0.258200
    11  C    0.276916
    12  F   -0.212552
    13  H    0.177265
    14  H    0.183271
    15  H    0.194793
    16  H    0.267261
    17  H    0.200465
    18  H    0.190483
    19  H    0.196902
 Sum of Mulliken charges =  -0.00000

 Dipole moment (field-independent basis, Debye):
    X=             -2.2400    Y=             -2.1647    Z=              0.0481  Tot=              3.1154
 Quadrupole moment (field-independent basis, Debye-Ang):
   XX=           -116.5486   YY=            -83.4532   ZZ=            -91.5951
   XY=             -8.2217   XZ=              0.9590   YZ=              0.0202

 Normal termination of Gaussian 16 at Tue Sep 17 11:13:09 2024.
