 Gaussian 16, Revision C.02,

 ----------------------------------------------------------------------
 #p B3LYP/6-31G(d,p) EmpiricalDispersion=GD3BJ opt freq scf(xqc,tight)
 integral(grid=ultrafine)
 ----------------------------------------------------------------------

 ----------------------------------
 opt-freq conformers_unique/conf_ab
 ----------------------------------
 Symbolic Z-matrix:
 Charge =  0 Multiplicity = 1

 SCF Done:  E(RB3LYP) =  -3248.96548937     A.U. after   15 cycles
 SCF Done:  E(RB3LYP) =  -3248.96704204     A.U. after   12 cycles
 SCF Done:  E(RB3LYP) =  -3248.96715915     A.U. after   11 cycles
 SCF Done:  E(RB3LYP) =  -3248.96717324     A.U. after   10 cycles
 SCF Done:  E(RB3LYP) =  -3248.96717432     A.U. after    8 cycles
 Optimization completed.
    -- Stationary point found.
 Normal termination of Gaussian 16 at Tue Sep 17 09:53:57 2024.

 ----------------------------------------------------------------------
 #P Geom=AllCheck Guess=TCheck SCRF=Check GenChk RB3LYP/6-31G(d,p) Freq
 ----------------------------------------------------------------------

 Structure from the checkpoint file:  "smiles_00028_conf_1.chk"
 ----------------------------------
 opt-freq conformers_unique/conf_ab
 ----------------------------------
 Charge =  0 Multiplicity = 1

 SCF Done:  E(RB3LYP) =  -3248.96717432     A.U. after    1 cycles

                      1                      2                      3
                      A                      A                      A
 Frequencies --     40.0680                55.3763                68.5961
 Red. masses --     11.6970                 6.1479                 7.7830
 Frc consts  --      0.0111                 0.0111                 0.0216
 IR Inten    --      0.0697                 0.5334                 0.0604

                      4                      5                      6
                      A                      A                      A
 Frequencies --    138.8117               194.5515               202.5786
 Red. masses --      8.7215                17.0492                 7.8100
 Frc consts  --      0.0990                 0.3802                 0.1888
 IR Inten    --      0.0215                 0.0701                 0.2502

                      7                      8                      9
                      A                      A                      A
 Frequencies --    234.2560               267.9281               329.4193
 Red. masses --      7.4686                 6.5072                10.0702
 Frc consts  --      0.2415                 0.2752                 0.6439
 IR Inten    --      0.4747                 1.4473                 4.6833

                     10                     11                     12
                      A                      A                      A
 Frequencies --    348.7427               394.1855               415.0518
 Red. masses --      7.8163                10.0728                 5.3310
 Frc consts  --      0.5601                 0.9222                 0.5411
 IR Inten    --      1.5493                13.5105                 2.3865

                     13                     14                     15
                      A                      A                      A
 Frequencies --    427.6436               472.4377               517.5561
 Red. masses --      3.9502                 3.5082                 5.0720
 Frc consts  --      0.4256                 0.4613                 0.8005
 IR Inten    --      2.3699                 2.5233                 2.2174

                     16                     17                     18
                      A                      A                      A
 Frequencies --    526.6596               591.3423               604.4291
 Red. masses --      4.1801                 4.9565                 7.4367
 Frc consts  --      0.6831                 1.0212                 1.6007
 IR Inten    --      0.6501                 6.8858                 7.3248

                     19                     20                     21
                      A                      A                      A
 Frequencies --    625.9672               645.0680               708.9075
 Red. masses --      4.3368                 7.6296                 4.9722
 Frc consts  --      1.0012                 1.8705                 1.4722
 IR Inten    --      1.7669                 4.0292                 1.1412

                     22                     23                     24
                      A                      A                      A
 Frequencies --    751.2317               776.6983               780.7202
 Red. masses --      8.1099                 6.4972                 4.0414
 Frc consts  --      2.6966                 2.3093                 1.4514
 IR Inten    --      6.8019                12.5538                 6.2560

                     25                     26                     27
                      A                      A                      A
 Frequencies --    825.5812               847.5680               861.1398
 Red. masses --      1.4577                 1.3830                 1.5449
 Frc consts  --      0.5854                 0.5854                 0.6750
 IR Inten    --     21.5127                41.8299                11.9833

                     28                     29                     30
                      A                      A                      A
 Frequencies --    953.6573               956.3884               990.4202
 Red. masses --      1.2970                 1.3850                 1.3885
 Frc consts  --      0.6950                 0.7464                 0.8025
 IR Inten    --      1.4086                 1.5461                 2.3525

                     31                     32                     33
                      A                      A                      A
 Frequencies --    996.9808              1020.9079              1058.0502
 Red. masses --      2.6837                 6.0856                 5.8474
 Frc consts  --      1.5717                 3.7370                 3.8568
 IR Inten    --     24.3247                54.0155                 1.8824

                     34                     35                     36
                      A                      A                      A
 Frequencies --   1115.8556              1136.5095              1161.1064
 Red. masses --      2.4721                 1.4184                 1.2700
 Frc consts  --      1.8135                 1.0794                 1.0088
 IR Inten    --     38.3707                57.6328                 2.3648

                     37                     38                     39
                      A                      A                      A
 Frequencies --   1183.5441              1262.1132              1293.2735
 Red. masses --      1.7932                 2.0785                 3.8378
 Frc consts  --      1.4800                 1.9507                 3.7820
 IR Inten    --     53.6023                 3.9903                16.7175

                     40                     41                     42
                      A                      A                      A
 Frequencies --   1307.3243              1322.7821              1344.0457
 Red. masses --      2.0200                 3.3543                 2.6555
 Frc consts  --      2.0341                 3.4580                 2.8264
 IR Inten    --     10.5767                49.2145                36.8300

                     43                     44                     45
                      A                      A                      A
 Frequencies --   1361.6205              1408.5725              1473.0218
 Red. masses --      6.3042                 3.1077                 4.5668
 Frc consts  --      6.8864                 3.6329                 5.8383
 IR Inten    --     17.5048                30.0500                50.9645

                     46                     47                     48
                      A                      A                      A
 Frequencies --   1507.8916              1554.2241              1603.1466
 Red. masses --      2.5727                 3.7864                 6.2978
 Frc consts  --      3.4465                 5.3889                 9.5365
 IR Inten    --    129.4794                45.3942                 7.7055

                     49                     50                     51
                      A                      A                      A
 Frequencies --   1626.8437              1645.9420              1675.2576
 Red. masses --      6.3008                 8.7666                 7.0661
 Frc consts  --      9.8251                13.9930                11.6841
 IR Inten    --     14.5831                62.2454               155.8435

                     52                     53                     54
                      A                      A                      A
 Frequencies --   3186.8910              3202.4994              3208.2903
 Red. masses --      1.0918                 1.0893                 1.0886
 Frc consts  --      6.5332                 6.5825                 6.6021
 IR Inten    --     10.6628                 6.6013                 2.5029

                     55                     56                     57
                      A                      A                      A
 Frequencies --   3224.2708              3231.6472              3242.3937
 Red. masses --      1.0959                 1.0944                 1.0932
 Frc consts  --      6.7127                 6.7342                 6.7712
 IR Inten    --      2.2326                 2.9699                 0.2227

 - Thermochemistry -
 -------------------
 Temperature   298.150 Kelvin.  Pressure   1.00000 Atm.
 Atom     1 has atomic number  9 and mass  18.99840

 Molecular mass:   268.96517 amu.
 Principal axes and moments of inertia in atomic units:
                           1         2         3
     Eigenvalues --   959.11831********************
           X            0.99999  -0.00295  -0.00126
           Y            0.00293   0.99981  -0.01920
           Z            0.00131   0.01920   0.99981
 This molecule is an asymmetric top.
 Rotational symmetry number  1.
 Warning -- assumption of classical behavior for rotation
           may cause significant error
 Rotational temperatures (Kelvin)      0.09031     0.00746     0.00701
 Rotational constants (GHZ):           1.88167     0.15547     0.14603
 Zero-point vibrational energy     376273.3 (Joules/Mol)
                                   89.93148 (Kcal/Mol)
 Warning -- explicit consideration of  18 degrees of freedom as
           vibrations may cause significant error
 Vibrational temperatures:     57.65    79.67    98.69   199.72   279.92
          (Kelvin)            291.47   337.04   385.49   473.96   501.76
                              567.15   597.17   615.28   679.73   744.65
                              757.75   850.81   869.64   900.63   928.11
                             1019.96  1080.85  1117.50  1123.28  1187.83
                             1219.46  1238.99  1372.10  1376.03  1424.99
                             1434.43  1468.86  1522.30  1605.47  1635.18
                             1670.57  1702.86  1815.90  1860.73  1880.95
                             1903.19  1933.78  1959.07  2026.62  2119.35
                             2169.52  2236.18  2306.57  2340.67  2368.14
                             2410.32  4585.23  4607.68  4616.01  4639.01
                             4649.62  4665.08

 Zero-point correction=                           0.143315 (Hartree/Particle)
 Thermal correction to Energy=                    0.155268
 Thermal correction to Enthalpy=                  0.156213
 Thermal correction to Gibbs Free Energy=         0.103022
 Sum of electronic and zero-point Energies=          -3248.823859
 Sum of electronic and thermal Energies=             -3248.811906
 Sum of electronic and thermal Enthalpies=           -3248.810962
 Sum of electronic and thermal Free Energies=        -3248.864152

                     E (Thermal)             CV                S
                      KCal/Mol        Cal/Mol-Kelvin    Cal/Mol-Kelvin
 Total                   97.432             45.509            111.949
 Electronic               0.000              0.000              0.000
 Translational            0.889              2.981             42.667
 Rotational               0.889              2.981             33.286
 Vibrational             95.655             39.548             35.995
 Vibration     1          0.594              1.981              5.256
 Vibration     2          0.596              1.975              4.616
 Vibration     3          0.598              1.969              4.193
 Vibration     4          0.614              1.915              2.820
 Vibration     5          0.635              1.847              2.184
 Vibration     6          0.639              1.836              2.110
 Vibration     7          0.654              1.788              1.846
 Vibration     8          0.673              1.732              1.610
 Vibration     9          0.712              1.617              1.263
 Vibration    10          0.726              1.578              1.172
 Vibration    11          0.761              1.483              0.984
 Vibration    12          0.778              1.438              0.909
 Vibration    13          0.789              1.410              0.866
 Vibration    14          0.829              1.311              0.731
 Vibration    15          0.873              1.211              0.616
 Vibration    16          0.882              1.191              0.595
 Vibration    17          0.949              1.050              0.465
 Vibration    18          0.963              1.022              0.442

 Optimization completed.
    -- Stationary point found.
 Normal termination of Gaussian 16 at Tue Sep 17 09:56:08 2024.

 ----------------------------------------------------------------------
 #p M062X/def2tzvp geom=check guess=read scf(xqc,tight) integral(grid=u
 ltrafine) scrf(SMD, solvent=1,4-Dioxane) polar prop=efg volume
 ----------------------------------------------------------------------

 ---
 spe
 ---
 Structure from the checkpoint file:  "smiles_00028_conf_1.chk"
 Charge =  0 Multiplicity = 1

 SCF Done:  E(RM062X) =  -3251.41696448     A.U. after   12 cycles

  Exact polarizability:     283.132      -4.792     161.613      -0.723      -6.695     100.714
 Approx polarizability:     269.506      -4.507     199.450      -0.831      -9.105     127.261

 Normal termination of Gaussian 16 at Tue Sep 17 10:57:08 2024.
 Gaussian 16:  ES64L-G16RevC.02  7-Dec-2021

 ----------------------------------------------------------------------
 #p M062X/def2tzvp geom=check guess=read scf(xqc,tight) integral(grid=u
 ltrafine) scrf(SMD, solvent=1,4-Dioxane) nmr=giao
 ----------------------------------------------------------------------

 ---
 spe
 ---
 Structure from the checkpoint file:  "smiles_00028_conf_1.chk"
 Charge =  0 Multiplicity = 1

                         Standard orientation:
 ---------------------------------------------------------------------
 Center     Atomic      Atomic             Coordinates (Angstroms)
 Number     Number       Type             X           Y           Z
 ---------------------------------------------------------------------
      1          9           0        5.901451   -0.255420   -0.135524
      2          6           0        4.556491   -0.235411   -0.096487
      3          6           0        3.852965   -1.410285   -0.332870
      4          6           0        2.462577   -1.364686   -0.290063
      5          6           0        1.761457   -0.179350   -0.020178
      6          6           0        0.280823   -0.162785    0.015826
      7          6           0       -0.429915   -1.223322    0.598916
      8          6           0       -1.820240   -1.200931    0.587115
      9          6           0       -2.449595   -0.108613   -0.000380
     10         35           0       -4.349155    0.003081   -0.055807
     11          6           0       -1.675375    0.915522   -0.547640
     12          7           0       -0.343511    0.889320   -0.543544
     13          6           0        2.528033    0.971473    0.214554
     14          9           0        1.922312    2.128007    0.521745
     15          6           0        3.916474    0.965313    0.181428
     16          1           0        4.388474   -2.325210   -0.555236
     17          1           0        1.896866   -2.266682   -0.498014
     18          1           0        0.099814   -2.042658    1.071903
     19          1           0       -2.400590   -2.001677    1.030755
     20          1           0       -2.152518    1.777713   -1.005672
     21          1           0        4.476913    1.870608    0.376995
 ---------------------------------------------------------------------

 SCF Done:  E(RM062X) =  -3251.41696448     A.U. after    1 cycles

      1  F    Isotropic =   286.3083   Anisotropy =   119.5774

      2  C    Isotropic =    -2.7844   Anisotropy =   124.9215

      3  C    Isotropic =    55.2492   Anisotropy =   172.1987

      4  C    Isotropic =    30.7619   Anisotropy =   204.4869

      5  C    Isotropic =    39.2843   Anisotropy =   176.1824

      6  C    Isotropic =     4.7700   Anisotropy =   205.6572

      7  C    Isotropic =    40.5369   Anisotropy =   189.5075

      8  C    Isotropic =    21.4871   Anisotropy =   207.1535

      9  C    Isotropic =    28.2698   Anisotropy =   141.5590

     10  Br   Isotropic =  2133.4631   Anisotropy =  1197.0319

     11  C    Isotropic =    10.2041   Anisotropy =   176.5089

     12  N    Isotropic =  -151.8303   Anisotropy =   629.5433

     13  C    Isotropic =     0.7882   Anisotropy =   123.6297

     14  F    Isotropic =   285.7958   Anisotropy =   165.1818

     15  C    Isotropic =    61.8062   Anisotropy =   145.8184

     16  H    Isotropic =    24.1559   Anisotropy =     5.4762

     17  H    Isotropic =    23.4586   Anisotropy =     8.9052

     18  H    Isotropic =    23.5832   Anisotropy =    10.1245

     19  H    Isotropic =    23.2016   Anisotropy =    10.5835

     20  H    Isotropic =    22.2265   Anisotropy =    11.4830

     21  H    Isotropic =    24.2427   Anisotropy =     5.8324

 The electronic state is 1-A.
 Alpha  occ. eigenvalues -- -485.38534 -63.37010 -57.18958 -57.18717 -57.18711
 Alpha  occ. eigenvalues --  -25.26866 -25.26489 -14.76538 -10.64780 -10.64554
 Alpha  occ. eigenvalues --  -10.61349 -10.60472 -10.59413 -10.57804 -10.57101
 Alpha  occ. eigenvalues --  -10.56939 -10.56726 -10.56173 -10.55857  -9.03655
 Alpha  occ. eigenvalues --   -6.86074  -6.85180  -6.85160  -2.89451  -2.89126
 Alpha  occ. eigenvalues --   -2.89103  -2.88270  -2.88270  -1.38384  -1.38176
 Alpha  occ. eigenvalues --   -1.07362  -0.98772  -0.94506  -0.90890  -0.87588
 Alpha  occ. eigenvalues --   -0.86754  -0.82586  -0.74521  -0.74120  -0.72253
 Alpha  occ. eigenvalues --   -0.69692  -0.65946  -0.62109  -0.61833  -0.58734
 Alpha  occ. eigenvalues --   -0.58355  -0.57605  -0.57008  -0.54896  -0.54725
 Alpha  occ. eigenvalues --   -0.52888  -0.51498  -0.49952  -0.48954  -0.47902
 Alpha  occ. eigenvalues --   -0.46421  -0.44396  -0.43762  -0.43416  -0.40247
 Alpha  occ. eigenvalues --   -0.36585  -0.35576  -0.33831  -0.33565  -0.32248
 Alpha  occ. eigenvalues --   -0.29090
 Alpha virt. eigenvalues --   -0.02646  -0.00958   0.00615   0.03076   0.03711
 Alpha virt. eigenvalues --    0.08466   0.09628   0.11076   0.11333   0.11753
 Alpha virt. eigenvalues --    0.12586   0.13608   0.14665   0.15222   0.16056

 Mulliken charges:
               1
     1  F   -0.206958
     2  C    0.319441
     3  C   -0.261668
     4  C   -0.160460
     5  C   -0.028588
     6  C    0.179549
     7  C   -0.223361
     8  C   -0.126175
     9  C    0.037427
    10  Br  -0.091558
    11  C   -0.091788
    12  N   -0.256588
    13  C    0.291534
    14  F   -0.191640
    15  C   -0.305503
    16  H    0.176997
    17  H    0.196857
    18  H    0.189641
    19  H    0.189782
    20  H    0.177433
    21  H    0.185625
 Sum of Mulliken charges =  -0.00000

 Dipole moment (field-independent basis, Debye):
    X=             -0.1389    Y=             -3.1521    Z=              0.7269  Tot=              3.2378
 Quadrupole moment (field-independent basis, Debye-Ang):
   XX=           -102.9689   YY=            -90.2863   ZZ=            -98.6655
   XY=             -1.3860   XZ=             -0.2624   YZ=             -1.3340

 Normal termination of Gaussian 16 at Tue Sep 17 11:19:02 2024.
