 Gaussian 16, Revision C.02,

 ----------------------------------------------------------------------
 #p B3LYP/6-31G(d,p) EmpiricalDispersion=GD3BJ opt freq scf(xqc,tight)
 integral(grid=ultrafine)
 ----------------------------------------------------------------------

 ----------------------------------
 opt-freq conformers_unique/conf_ae
 ----------------------------------
 Symbolic Z-matrix:
 Charge =  0 Multiplicity = 1

 SCF Done:  E(RB3LYP) =  -3070.59302304     A.U. after   15 cycles
 SCF Done:  E(RB3LYP) =  -3070.59438857     A.U. after   12 cycles
 SCF Done:  E(RB3LYP) =  -3070.59446149     A.U. after   11 cycles
 SCF Done:  E(RB3LYP) =  -3070.59440162     A.U. after   12 cycles
 SCF Done:  E(RB3LYP) =  -3070.59455242     A.U. after   11 cycles
 SCF Done:  E(RB3LYP) =  -3070.59460635     A.U. after   12 cycles
 SCF Done:  E(RB3LYP) =  -3070.59457084     A.U. after   15 cycles
 SCF Done:  E(RB3LYP) =  -3070.59519523     A.U. after   13 cycles
 SCF Done:  E(RB3LYP) =  -3070.59539301     A.U. after   13 cycles
 SCF Done:  E(RB3LYP) =  -3070.59546799     A.U. after   12 cycles
 SCF Done:  E(RB3LYP) =  -3070.59593190     A.U. after   13 cycles
 SCF Done:  E(RB3LYP) =  -3070.59593290     A.U. after   12 cycles
 SCF Done:  E(RB3LYP) =  -3070.59594273     A.U. after   11 cycles
 SCF Done:  E(RB3LYP) =  -3070.59594385     A.U. after   10 cycles
 SCF Done:  E(RB3LYP) =  -3070.59594399     A.U. after   10 cycles
 SCF Done:  E(RB3LYP) =  -3070.59594407     A.U. after    8 cycles
 SCF Done:  E(RB3LYP) =  -3070.59594406     A.U. after    7 cycles
 Optimization completed.
    -- Stationary point found.
 Normal termination of Gaussian 16 at Tue Sep 17 09:49:09 2024.

 ----------------------------------------------------------------------
 #P Geom=AllCheck Guess=TCheck SCRF=Check GenChk RB3LYP/6-31G(d,p) Freq
 ----------------------------------------------------------------------

 Structure from the checkpoint file:  "smiles_00047_conf_4.chk"
 ----------------------------------
 opt-freq conformers_unique/conf_ae
 ----------------------------------
 Charge =  0 Multiplicity = 1

 SCF Done:  E(RB3LYP) =  -3070.59594406     A.U. after    1 cycles

                      1                      2                      3
                      A                      A                      A
 Frequencies --     17.6855                31.8928                62.9070
 Red. masses --      5.1468                 4.2160                 6.6739
 Frc consts  --      0.0009                 0.0025                 0.0156
 IR Inten    --      1.8390                 0.4259                 1.0953

                      4                      5                      6
                      A                      A                      A
 Frequencies --    112.5876               128.6205               183.2306
 Red. masses --      2.2348                 1.5501                 4.7246
 Frc consts  --      0.0167                 0.0151                 0.0935
 IR Inten    --      0.2023                 0.1720                 3.0239

                      7                      8                      9
                      A                      A                      A
 Frequencies --    203.2882               270.7849               291.5954
 Red. masses --      6.5179                 5.0630                 4.4773
 Frc consts  --      0.1587                 0.2187                 0.2243
 IR Inten    --      1.1835                 3.5590                11.2247

                     10                     11                     12
                      A                      A                      A
 Frequencies --    329.1616               351.4603               421.4870
 Red. masses --      5.0775                 4.8350                 2.6504
 Frc consts  --      0.3241                 0.3519                 0.2774
 IR Inten    --      4.7338                 6.2981                 4.0831

                     13                     14                     15
                      A                      A                      A
 Frequencies --    423.2309               505.0681               580.2935
 Red. masses --      2.7537                 3.0831                 5.8561
 Frc consts  --      0.2906                 0.4634                 1.1619
 IR Inten    --      1.8815                 9.2433                 7.8592

                     16                     17                     18
                      A                      A                      A
 Frequencies --    645.0390               665.2216               719.7173
 Red. masses --      6.4144                 4.5953                 4.1245
 Frc consts  --      1.5725                 1.1981                 1.2588
 IR Inten    --      1.7563                 8.0880                 2.6270

                     19                     20                     21
                      A                      A                      A
 Frequencies --    775.2787               825.3244               851.3176
 Red. masses --      4.8459                 1.8100                 1.3277
 Frc consts  --      1.7161                 0.7264                 0.5669
 IR Inten    --     24.6542                22.2953                 0.6167

                     22                     23                     24
                      A                      A                      A
 Frequencies --    856.1326               895.3268               961.2136
 Red. masses --      2.9554                 3.2582                 2.1252
 Frc consts  --      1.2763                 1.5389                 1.1569
 IR Inten    --     13.0445                 8.3816                 1.3730

                     25                     26                     27
                      A                      A                      A
 Frequencies --    972.7843               987.6703              1030.9147
 Red. masses --      1.4087                 1.3531                 4.8795
 Frc consts  --      0.7854                 0.7777                 3.0554
 IR Inten    --      0.3189                 0.2361                41.8041

                     28                     29                     30
                      A                      A                      A
 Frequencies --   1048.2232              1096.3580              1134.8309
 Red. masses --      4.8984                 2.5986                 1.4047
 Frc consts  --      3.1711                 1.8404                 1.0658
 IR Inten    --     34.1729                27.5279                12.7208

                     31                     32                     33
                      A                      A                      A
 Frequencies --   1166.7502              1179.5986              1211.5855
 Red. masses --      1.3908                 1.2818                 1.1526
 Frc consts  --      1.1155                 1.0508                 0.9969
 IR Inten    --    109.7862                 1.4336                 2.3841

                     34                     35                     36
                      A                      A                      A
 Frequencies --   1212.1954              1221.2241              1292.8645
 Red. masses --      1.4361                 2.7156                 2.0198
 Frc consts  --      1.2433                 2.3862                 1.9891
 IR Inten    --      2.8702                 6.0211               170.0459

                     37                     38                     39
                      A                      A                      A
 Frequencies --   1325.7503              1334.8740              1367.4012
 Red. masses --      2.4186                 1.8285                 2.4092
 Frc consts  --      2.5046                 1.9197                 2.6541
 IR Inten    --    119.9288                 2.5291                71.7988

                     40                     41                     42
                      A                      A                      A
 Frequencies --   1449.4647              1480.5054              1488.8836
 Red. masses --      2.5772                 1.2002                 1.1310
 Frc consts  --      3.1901                 1.5499                 1.4772
 IR Inten    --     13.8740                10.4674                15.5944

                     43                     44                     45
                      A                      A                      A
 Frequencies --   1496.0385              1509.2498              1533.0226
 Red. masses --      1.0465                 1.0505                 2.3189
 Frc consts  --      1.3800                 1.4099                 3.2110
 IR Inten    --      6.5968                 8.0503                60.1309

                     46                     47                     48
                      A                      A                      A
 Frequencies --   1629.9686              1651.2581              1821.5259
 Red. masses --      6.8891                 5.7100                10.9234
 Frc consts  --     10.7837                 9.1731                21.3540
 IR Inten    --      0.5408                 5.3198               186.9910

                     49                     50                     51
                      A                      A                      A
 Frequencies --   3067.5275              3075.9349              3139.8977
 Red. masses --      1.0297                 1.0611                 1.1040
 Frc consts  --      5.7088                 5.9152                 6.4126
 IR Inten    --     30.0467                10.6309                 5.7639

                     52                     53                     54
                      A                      A                      A
 Frequencies --   3146.0195              3179.1806              3188.6671
 Red. masses --      1.1071                 1.1072                 1.0895
 Frc consts  --      6.4557                 6.5937                 6.5270
 IR Inten    --     19.8795                14.8860                 9.8868

                     55                     56                     57
                      A                      A                      A
 Frequencies --   3203.6816              3221.8539              3223.4804
 Red. masses --      1.0891                 1.0937                 1.0948
 Frc consts  --      6.5860                 6.6887                 6.7028
 IR Inten    --      0.7949                 4.1140                 0.3742

 - Thermochemistry -
 -------------------
 Temperature   298.150 Kelvin.  Pressure   1.00000 Atm.
 Atom     1 has atomic number  6 and mass  12.00000

 Molecular mass:   227.97859 amu.
 Principal axes and moments of inertia in atomic units:
                           1         2         3
     Eigenvalues --   905.839747692.410617778.27612
           X            0.99989  -0.00249  -0.01453
           Y            0.00282   0.99973   0.02288
           Z            0.01447  -0.02292   0.99963
 This molecule is an asymmetric top.
 Rotational symmetry number  1.
 Warning -- assumption of classical behavior for rotation
           may cause significant error
 Rotational temperatures (Kelvin)      0.09562     0.01126     0.01114
 Rotational constants (GHZ):           1.99234     0.23461     0.23202
 Zero-point vibrational energy     425852.9 (Joules/Mol)
                                  101.78129 (Kcal/Mol)
 Warning -- explicit consideration of  15 degrees of freedom as
           vibrations may cause significant error
 Vibrational temperatures:     25.45    45.89    90.51   161.99   185.06
          (Kelvin)            263.63   292.49   389.60   419.54   473.59
                              505.67   606.43   608.93   726.68   834.91
                              928.07   957.11  1035.51  1115.45  1187.46
                             1224.86  1231.78  1288.18  1382.97  1399.62
                             1421.04  1483.26  1508.16  1577.41  1632.77
                             1678.69  1697.18  1743.20  1744.08  1757.07
                             1860.14  1907.46  1920.59  1967.39  2085.46
                             2130.12  2142.17  2152.47  2171.47  2205.68
                             2345.16  2375.79  2620.77  4413.49  4425.58
                             4517.61  4526.42  4574.13  4587.78  4609.38
                             4635.53  4637.87

 Zero-point correction=                           0.162199 (Hartree/Particle)
 Thermal correction to Energy=                    0.173858
 Thermal correction to Enthalpy=                  0.174802
 Thermal correction to Gibbs Free Energy=         0.120950
 Sum of electronic and zero-point Energies=          -3070.433745
 Sum of electronic and thermal Energies=             -3070.422086
 Sum of electronic and thermal Enthalpies=           -3070.421142
 Sum of electronic and thermal Free Energies=        -3070.474994

                     E (Thermal)             CV                S
                      KCal/Mol        Cal/Mol-Kelvin    Cal/Mol-Kelvin
 Total                  109.098             41.369            113.342
 Electronic               0.000              0.000              0.000
 Translational            0.889              2.981             42.174
 Rotational               0.889              2.981             32.361
 Vibrational            107.320             35.408             38.807
 Vibration     1          0.593              1.986              6.878
 Vibration     2          0.594              1.983              5.708
 Vibration     3          0.597              1.972              4.364
 Vibration     4          0.607              1.939              3.224
 Vibration     5          0.611              1.925              2.967
 Vibration     6          0.631              1.863              2.295
 Vibration     7          0.639              1.835              2.103
 Vibration     8          0.674              1.727              1.591
 Vibration     9          0.687              1.689              1.465
 Vibration    10          0.712              1.617              1.264
 Vibration    11          0.728              1.572              1.160
 Vibration    12          0.784              1.424              0.887
 Vibration    13          0.785              1.420              0.881
 Vibration    14          0.860              1.239              0.646
 Vibration    15          0.937              1.074              0.485

 Optimization completed.
    -- Stationary point found.
 Normal termination of Gaussian 16 at Tue Sep 17 09:51:00 2024.

 ----------------------------------------------------------------------
 #p M062X/def2tzvp geom=check guess=read scf(xqc,tight) integral(grid=u
 ltrafine) scrf(SMD, solvent=1,4-Dioxane) polar prop=efg volume
 ----------------------------------------------------------------------

 ---
 spe
 ---
 Structure from the checkpoint file:  "smiles_00047_conf_4.chk"
 Charge =  0 Multiplicity = 1

 SCF Done:  E(RM062X) =  -3073.02464049     A.U. after   11 cycles

  Exact polarizability:     197.098       4.342     139.097      12.322      -6.647     105.736
 Approx polarizability:     189.401       4.069     170.888      16.453     -10.458     122.118

 Normal termination of Gaussian 16 at Tue Sep 17 10:35:05 2024.
 Gaussian 16:  ES64L-G16RevC.02  7-Dec-2021

 ----------------------------------------------------------------------
 #p M062X/def2tzvp geom=check guess=read scf(xqc,tight) integral(grid=u
 ltrafine) scrf(SMD, solvent=1,4-Dioxane) nmr=giao
 ----------------------------------------------------------------------

 ---
 spe
 ---
 Structure from the checkpoint file:  "smiles_00047_conf_4.chk"
 Charge =  0 Multiplicity = 1

                         Standard orientation:
 ---------------------------------------------------------------------
 Center     Atomic      Atomic             Coordinates (Angstroms)
 Number     Number       Type             X           Y           Z
 ---------------------------------------------------------------------
      1          6           0        4.614908   -0.170306   -1.651076
      2          8           0        3.809218    0.556014   -0.706363
      3          6           0        3.303656   -0.184349    0.300089
      4          8           0        3.512853   -1.370721    0.437117
      5          6           0        2.404189    0.643461    1.199158
      6          6           0        0.948719    0.446503    0.816487
      7          6           0        0.369016   -0.826960    0.876870
      8          6           0       -0.964385   -1.020880    0.526136
      9          6           0       -1.722070    0.072203    0.109856
     10         35           0       -3.554105   -0.184806   -0.369856
     11          6           0       -1.168818    1.346586    0.036013
     12          6           0        0.169111    1.523846    0.388806
     13          1           0        4.026814   -0.959026   -2.125786
     14          1           0        5.475011   -0.622913   -1.152551
     15          1           0        4.938911    0.564457   -2.386981
     16          1           0        2.575109    0.303347    2.224877
     17          1           0        2.676769    1.697692    1.127176
     18          1           0        0.974375   -1.672452    1.187298
     19          1           0       -1.411814   -2.006639    0.573789
     20          1           0       -1.771363    2.184976   -0.292828
     21          1           0        0.607335    2.515802    0.329903
 ---------------------------------------------------------------------

 SCF Done:  E(RM062X) =  -3073.02464049     A.U. after    1 cycles

      1  C    Isotropic =   130.4469   Anisotropy =    74.3456

      2  O    Isotropic =   120.3975   Anisotropy =   180.3670

      3  C    Isotropic =    -9.8971   Anisotropy =   121.9942

      4  O    Isotropic =  -151.4006   Anisotropy =   676.8148

      5  C    Isotropic =   139.9330   Anisotropy =    21.8445

      6  C    Isotropic =    26.8376   Anisotropy =   220.5326

      7  C    Isotropic =    32.5015   Anisotropy =   210.3520

      8  C    Isotropic =    30.8226   Anisotropy =   185.3356

      9  C    Isotropic =    25.7225   Anisotropy =   141.3877

     10  Br   Isotropic =  2088.3754   Anisotropy =  1285.5356

     11  C    Isotropic =    31.4683   Anisotropy =   184.2331

     12  C    Isotropic =    32.3502   Anisotropy =   187.7151

     13  H    Isotropic =    28.4102   Anisotropy =     7.6729

     14  H    Isotropic =    28.1282   Anisotropy =     8.5646

     15  H    Isotropic =    28.3485   Anisotropy =     7.8546

     16  H    Isotropic =    28.1637   Anisotropy =     5.5040

     17  H    Isotropic =    28.3347   Anisotropy =     4.0660

     18  H    Isotropic =    23.2547   Anisotropy =     9.3567

     19  H    Isotropic =    23.6364   Anisotropy =    10.5728

     20  H    Isotropic =    23.7229   Anisotropy =    10.2471

     21  H    Isotropic =    23.8373   Anisotropy =     7.8336

 The electronic state is 1-A.
 Alpha  occ. eigenvalues -- -485.37515 -63.35996 -57.17940 -57.17705 -57.17699
 Alpha  occ. eigenvalues --  -19.67753 -19.62171 -10.67879 -10.60403 -10.58871
 Alpha  occ. eigenvalues --  -10.56743 -10.55947 -10.55799 -10.55745 -10.55545
 Alpha  occ. eigenvalues --  -10.55273  -9.02641  -6.85045  -6.84175  -6.84156
 Alpha  occ. eigenvalues --   -2.88421  -2.88106  -2.88083  -2.87273  -2.87272
 Alpha  occ. eigenvalues --   -1.23633  -1.14384  -0.98519  -0.91844  -0.87002
 Alpha  occ. eigenvalues --   -0.85707  -0.82223  -0.77616  -0.70806  -0.67580
 Alpha  occ. eigenvalues --   -0.65270  -0.59610  -0.58490  -0.57204  -0.55701
 Alpha  occ. eigenvalues --   -0.54397  -0.53249  -0.50182  -0.49532  -0.48449
 Alpha  occ. eigenvalues --   -0.47260  -0.45535  -0.44844  -0.43575  -0.41802
 Alpha  occ. eigenvalues --   -0.40885  -0.38186  -0.37839  -0.35891  -0.35163
 Alpha  occ. eigenvalues --   -0.32180  -0.29512
 Alpha virt. eigenvalues --    0.00274   0.00691   0.03583   0.04906   0.07720
 Alpha virt. eigenvalues --    0.09766   0.10464   0.10876   0.12309   0.13347
 Alpha virt. eigenvalues --    0.14136   0.14469   0.15516   0.16185   0.16540

 Mulliken charges:
               1
     1  C   -0.267501
     2  O   -0.271502
     3  C    0.397303
     4  O   -0.366623
     5  C   -0.364558
     6  C    0.080801
     7  C   -0.187423
     8  C   -0.155250
     9  C    0.031748
    10  Br  -0.116880
    11  C   -0.155585
    12  C   -0.188212
    13  H    0.161296
    14  H    0.160109
    15  H    0.156591
    16  H    0.192974
    17  H    0.171940
    18  H    0.189828
    19  H    0.182004
    20  H    0.180125
    21  H    0.168814
 Sum of Mulliken charges =  -0.00000

 Dipole moment (field-independent basis, Debye):
    X=              2.2308    Y=              2.0015    Z=             -0.3522  Tot=              3.0177
 Quadrupole moment (field-independent basis, Debye-Ang):
   XX=            -81.6319   YY=            -80.6706   ZZ=            -80.5132
   XY=              5.6807   XZ=             -4.4716   YZ=              1.1914

 Normal termination of Gaussian 16 at Tue Sep 17 10:55:00 2024.
