 Gaussian 16, Revision C.02,

 ----------------------------------------------------------------------
 #p B3LYP/6-31G(d,p) EmpiricalDispersion=GD3BJ opt freq scf(xqc,tight)
 integral(grid=ultrafine)
 ----------------------------------------------------------------------

 ----------------------------------
 opt-freq conformers_unique/conf_aa
 ----------------------------------
 Symbolic Z-matrix:
 Charge =  0 Multiplicity = 1

 SCF Done:  E(RB3LYP) =  -723.940910345     A.U. after   13 cycles
 SCF Done:  E(RB3LYP) =  -723.942777684     A.U. after   11 cycles
 SCF Done:  E(RB3LYP) =  -723.942939372     A.U. after    9 cycles
 SCF Done:  E(RB3LYP) =  -723.942952838     A.U. after    9 cycles
 SCF Done:  E(RB3LYP) =  -723.942953820     A.U. after    7 cycles
 Optimization completed.
    -- Stationary point found.
 Normal termination of Gaussian 16 at Tue Sep 17 09:55:24 2024.

 ----------------------------------------------------------------------
 #P Geom=AllCheck Guess=TCheck SCRF=Check GenChk RB3LYP/6-31G(d,p) Freq
 ----------------------------------------------------------------------

 Structure from the checkpoint file:  "smiles_00054_conf_0.chk"
 ----------------------------------
 opt-freq conformers_unique/conf_aa
 ----------------------------------
 Charge =  0 Multiplicity = 1

 SCF Done:  E(RB3LYP) =  -723.942953820     A.U. after    1 cycles

                      1                      2                      3
                      A                      A                      A
 Frequencies --    159.1480               330.4306               414.6148
 Red. masses --      6.6940                 8.7041                 4.2141
 Frc consts  --      0.0999                 0.5599                 0.4268
 IR Inten    --      3.2048                 2.2833                 0.0000

                      4                      5                      6
                      A                      A                      A
 Frequencies --    443.6420               491.2912               636.7146
 Red. masses --     16.2708                 2.9982                 8.1559
 Frc consts  --      1.8868                 0.4264                 1.9481
 IR Inten    --      8.4462                 0.5223                 9.9407

                      7                      8                      9
                      A                      A                      A
 Frequencies --    774.1035               791.9692               821.7520
 Red. masses --      7.8329                 8.3865                 1.2129
 Frc consts  --      2.7655                 3.0992                 0.4826
 IR Inten    --     42.1785                14.1084                18.6632

                     10                     11                     12
                      A                      A                      A
 Frequencies --   1000.8538              1002.5819              1004.0736
 Red. masses --      1.3705                 1.4181                 9.9000
 Frc consts  --      0.8089                 0.8399                 5.8805
 IR Inten    --      0.0000                 0.0974                 0.1785

                     13                     14                     15
                      A                      A                      A
 Frequencies --   1100.3438              1117.2042              1207.1204
 Red. masses --      2.6798                 1.4178                 4.2591
 Frc consts  --      1.9116                 1.0427                 3.6566
 IR Inten    --      2.6150                 0.5689               188.0674

                     16                     17                     18
                      A                      A                      A
 Frequencies --   1257.9076              1302.1130              1433.7953
 Red. masses --      8.0339                 1.6308                 2.1632
 Frc consts  --      7.4899                 1.6291                 2.6201
 IR Inten    --      1.0381                 6.6349               206.9462

                     19                     20                     21
                      A                      A                      A
 Frequencies --   1466.4863              1606.8557              1620.3398
 Red. masses --      1.9552                 6.3578                 4.8964
 Frc consts  --      2.4774                 9.6719                 7.5743
 IR Inten    --      0.7029               103.7021               111.2145

                     22                     23                     24
                      A                      A                      A
 Frequencies --   3181.0591              3183.3439              3231.6853
 Red. masses --      1.0904                 1.0924                 1.0964
 Frc consts  --      6.5009                 6.5220                 6.7467
 IR Inten    --      9.5203                19.2992                 5.1777

 - Thermochemistry -
 -------------------
 Temperature   298.150 Kelvin.  Pressure   1.00000 Atm.
 Atom     1 has atomic number 17 and mass  34.96885

 Molecular mass:   113.99848 amu.
 Principal axes and moments of inertia in atomic units:
                           1         2         3
     Eigenvalues --   296.358621070.943991367.30259
           X            1.00000   0.00000  -0.00013
           Y           -0.00000   1.00000  -0.00003
           Z            0.00013   0.00003   1.00000
 This molecule is an asymmetric top.
 Rotational symmetry number  1.
 Rotational temperatures (Kelvin)      0.29226     0.08088     0.06335
 Rotational constants (GHZ):           6.08972     1.68519     1.31993
 Zero-point vibrational energy     176924.3 (Joules/Mol)
                                   42.28592 (Kcal/Mol)
 Warning -- explicit consideration of   5 degrees of freedom as
           vibrations may cause significant error
 Vibrational temperatures:    228.98   475.42   596.54   638.30   706.86
          (Kelvin)            916.09  1113.76  1139.47  1182.32  1440.01
                             1442.49  1444.64  1583.15  1607.41  1736.78
                             1809.85  1873.45  2062.91  2109.95  2311.91
                             2331.31  4576.83  4580.12  4649.67

 Zero-point correction=                           0.067387 (Hartree/Particle)
 Thermal correction to Energy=                    0.072623
 Thermal correction to Enthalpy=                  0.073567
 Thermal correction to Gibbs Free Energy=         0.037712
 Sum of electronic and zero-point Energies=           -723.875567
 Sum of electronic and thermal Energies=              -723.870331
 Sum of electronic and thermal Enthalpies=            -723.869387
 Sum of electronic and thermal Free Energies=         -723.905242

                     E (Thermal)             CV                S
                      KCal/Mol        Cal/Mol-Kelvin    Cal/Mol-Kelvin
 Total                   45.571             18.945             75.462
 Electronic               0.000              0.000              0.000
 Translational            0.889              2.981             40.109
 Rotational               0.889              2.981             27.564
 Vibrational             43.794             12.984              7.790
 Vibration     1          0.621              1.892              2.560
 Vibration     2          0.713              1.615              1.258
 Vibration     3          0.778              1.438              0.910
 Vibration     4          0.803              1.375              0.815
 Vibration     5          0.847              1.269              0.680

 Optimization completed.
    -- Stationary point found.
 Normal termination of Gaussian 16 at Tue Sep 17 09:55:51 2024.

 ----------------------------------------------------------------------
 #p M062X/def2tzvp geom=check guess=read scf(xqc,tight) integral(grid=u
 ltrafine) scrf(SMD, solvent=1,4-Dioxane) polar prop=efg volume
 ----------------------------------------------------------------------

 ---
 spe
 ---
 Structure from the checkpoint file:  "smiles_00054_conf_0.chk"
 Charge =  0 Multiplicity = 1

 SCF Done:  E(RM062X) =  -723.921055294     A.U. after   11 cycles

  Exact polarizability:     109.700      -0.000      80.058       0.006       0.001      44.002
 Approx polarizability:     117.039      -0.000      96.182       0.004       0.001      54.358

 Normal termination of Gaussian 16 at Tue Sep 17 10:01:11 2024.
 Gaussian 16:  ES64L-G16RevC.02  7-Dec-2021

 ----------------------------------------------------------------------
 #p M062X/def2tzvp geom=check guess=read scf(xqc,tight) integral(grid=u
 ltrafine) scrf(SMD, solvent=1,4-Dioxane) nmr=giao
 ----------------------------------------------------------------------

 ---
 spe
 ---
 Structure from the checkpoint file:  "smiles_00054_conf_0.chk"
 Charge =  0 Multiplicity = 1

                         Standard orientation:
 ---------------------------------------------------------------------
 Center     Atomic      Atomic             Coordinates (Angstroms)
 Number     Number       Type             X           Y           Z
 ---------------------------------------------------------------------
      1         17           0       -2.195754   -0.000000   -0.000396
      2          6           0       -0.444566   -0.000001    0.000341
      3          7           0        0.133396    1.196107    0.000182
      4          6           0        1.472510    1.182608    0.000145
      5          6           0        2.207630    0.000000    0.000154
      6          6           0        1.472512   -1.182607    0.000077
      7          7           0        0.133397   -1.196106    0.000114
      8          1           0        1.960414    2.154434    0.000155
      9          1           0        3.290923    0.000002    0.000166
     10          1           0        1.960414   -2.154434    0.000032
 ---------------------------------------------------------------------

 SCF Done:  E(RM062X) =  -723.921055294     A.U. after    1 cycles

      1  Cl   Isotropic =   550.1713   Anisotropy =   692.9593

      2  C    Isotropic =    -6.7330   Anisotropy =   106.3710

      3  N    Isotropic =  -109.0212   Anisotropy =   527.5880

      4  C    Isotropic =    -0.8600   Anisotropy =   224.3895

      5  C    Isotropic =    44.8787   Anisotropy =   205.4719

      6  C    Isotropic =    -0.8597   Anisotropy =   224.3891

      7  N    Isotropic =  -109.0201   Anisotropy =   527.5876

      8  H    Isotropic =    22.3419   Anisotropy =     7.0717

      9  H    Isotropic =    23.8338   Anisotropy =     5.9201

     10  H    Isotropic =    22.3419   Anisotropy =     7.0717

 The electronic state is 1-A.
 Alpha  occ. eigenvalues -- -102.65035 -14.77847 -14.77846 -10.67827 -10.61153
 Alpha  occ. eigenvalues --  -10.61153 -10.56995  -9.81330  -7.53520  -7.53024
 Alpha  occ. eigenvalues --   -7.52978  -1.12951  -1.01949  -0.96550  -0.88373
 Alpha  occ. eigenvalues --   -0.76689  -0.73918  -0.61686  -0.60828  -0.54354
 Alpha  occ. eigenvalues --   -0.53552  -0.50230  -0.49221  -0.41734  -0.40133
 Alpha  occ. eigenvalues --   -0.39680  -0.38929  -0.34241  -0.33740
 Alpha virt. eigenvalues --   -0.02582  -0.01088   0.07462   0.09235   0.11113
 Alpha virt. eigenvalues --    0.11301   0.14001   0.15386   0.17978   0.19498
 Alpha virt. eigenvalues --    0.22111   0.22252   0.25261   0.28088   0.28259

 Mulliken charges:
               1
     1  Cl  -0.057900
     2  C    0.196735
     3  N   -0.242326
     4  C   -0.000760
     5  C   -0.184420
     6  C   -0.000760
     7  N   -0.242325
     8  H    0.179258
     9  H    0.173240
    10  H    0.179258
 Sum of Mulliken charges =  -0.00000

 Dipole moment (field-independent basis, Debye):
    X=              4.6656    Y=              0.0000    Z=              0.0004  Tot=              4.6656
 Quadrupole moment (field-independent basis, Debye-Ang):
   XX=            -38.5729   YY=            -47.4753   ZZ=            -47.6751
   XY=              0.0000   XZ=              0.0007   YZ=              0.0000

 Normal termination of Gaussian 16 at Tue Sep 17 10:03:33 2024.
