 Gaussian 16, Revision C.02,

 ----------------------------------------------------------------------
 #p B3LYP/6-31G(d,p) EmpiricalDispersion=GD3BJ opt freq scf(xqc,tight)
 integral(grid=ultrafine)
 ----------------------------------------------------------------------

 ----------------------------------
 opt-freq conformers_unique/conf_ad
 ----------------------------------
 Symbolic Z-matrix:
 Charge =  0 Multiplicity = 1

 SCF Done:  E(RB3LYP) =  -3506.89110804     A.U. after   15 cycles
 SCF Done:  E(RB3LYP) =  -3506.89300519     A.U. after   12 cycles
 SCF Done:  E(RB3LYP) =  -3506.89325199     A.U. after   12 cycles
 SCF Done:  E(RB3LYP) =  -3506.89332495     A.U. after   13 cycles
 SCF Done:  E(RB3LYP) =  -3506.89392698     A.U. after   13 cycles
 SCF Done:  E(RB3LYP) =  -3506.89526691     A.U. after   15 cycles
 SCF Done:  E(RB3LYP) =  -3506.89507168     A.U. after   13 cycles
 SCF Done:  E(RB3LYP) =  -3506.89682462     A.U. after   14 cycles
 SCF Done:  E(RB3LYP) =  -3506.89727334     A.U. after   13 cycles
 SCF Done:  E(RB3LYP) =  -3506.89748411     A.U. after   13 cycles
 SCF Done:  E(RB3LYP) =  -3506.89774233     A.U. after   11 cycles
 SCF Done:  E(RB3LYP) =  -3506.89775967     A.U. after   13 cycles
 SCF Done:  E(RB3LYP) =  -3506.89775954     A.U. after   12 cycles
 SCF Done:  E(RB3LYP) =  -3506.89776232     A.U. after   11 cycles
 SCF Done:  E(RB3LYP) =  -3506.89776298     A.U. after   11 cycles
 SCF Done:  E(RB3LYP) =  -3506.89776330     A.U. after   10 cycles
 SCF Done:  E(RB3LYP) =  -3506.89776331     A.U. after    7 cycles
 Optimization completed.
    -- Stationary point found.
 Normal termination of Gaussian 16 at Tue Sep 17 09:51:46 2024.

 ----------------------------------------------------------------------
 #P Geom=AllCheck Guess=TCheck SCRF=Check GenChk RB3LYP/6-31G(d,p) Freq
 ----------------------------------------------------------------------

 Structure from the checkpoint file:  "smiles_00077_conf_3.chk"
 ----------------------------------
 opt-freq conformers_unique/conf_ad
 ----------------------------------
 Charge =  0 Multiplicity = 1

 SCF Done:  E(RB3LYP) =  -3506.89776331     A.U. after    1 cycles

                      1                      2                      3
                      A                      A                      A
 Frequencies --     26.3638                75.2474               100.0714
 Red. masses --      7.4363                 9.4199                 3.3977
 Frc consts  --      0.0030                 0.0314                 0.0200
 IR Inten    --      1.0317                 0.0813                 0.1717

                      4                      5                      6
                      A                      A                      A
 Frequencies --    109.7551               133.4364               185.5056
 Red. masses --      6.1407                 1.1601                 5.2011
 Frc consts  --      0.0436                 0.0122                 0.1055
 IR Inten    --      0.5352                 0.1419                 3.7120

                      7                      8                      9
                      A                      A                      A
 Frequencies --    200.2575               260.8366               275.8689
 Red. masses --      8.7171                12.8157                 8.8419
 Frc consts  --      0.2060                 0.5137                 0.3965
 IR Inten    --      2.0726                 0.9433                 2.7059

                     10                     11                     12
                      A                      A                      A
 Frequencies --    321.1173               353.4510               369.4487
 Red. masses --      7.8440                 5.1571                10.6444
 Frc consts  --      0.4766                 0.3796                 0.8560
 IR Inten    --      2.1389                 4.6859                 8.0346

                     13                     14                     15
                      A                      A                      A
 Frequencies --    449.6259               483.6372               524.4358
 Red. masses --      5.1866                 7.0023                 4.3579
 Frc consts  --      0.6178                 0.9650                 0.7062
 IR Inten    --      4.5038                 4.7595                11.9871

                     16                     17                     18
                      A                      A                      A
 Frequencies --    570.8380               671.3011               729.4940
 Red. masses --      7.8893                 8.5460                 7.6356
 Frc consts  --      1.5146                 2.2691                 2.3941
 IR Inten    --     33.8536                 8.3586                 0.9402

                     19                     20                     21
                      A                      A                      A
 Frequencies --    779.4367               787.3159               873.8170
 Red. masses --      6.7676                 7.1711                 7.0584
 Frc consts  --      2.4224                 2.6190                 3.1754
 IR Inten    --     11.4598                16.9956                 1.0288

                     22                     23                     24
                      A                      A                      A
 Frequencies --    947.7011               973.2804               997.1046
 Red. masses --      1.5169                 1.3799                 7.4069
 Frc consts  --      0.8027                 0.7702                 4.3388
 IR Inten    --     10.2621                 0.8856                30.2213

                     25                     26                     27
                      A                      A                      A
 Frequencies --   1090.3141              1142.6569              1162.3884
 Red. masses --      6.9387                 2.8061                 3.0783
 Frc consts  --      4.8600                 2.1587                 2.4506
 IR Inten    --    165.1810                35.5083                99.6744

                     28                     29                     30
                      A                      A                      A
 Frequencies --   1180.3556              1215.0088              1261.8501
 Red. masses --      1.2766                 1.5928                 3.6031
 Frc consts  --      1.0479                 1.3854                 3.3802
 IR Inten    --      0.7813                22.4741               201.1282

                     31                     32                     33
                      A                      A                      A
 Frequencies --   1285.3495              1311.2626              1421.9986
 Red. masses --      2.0992                 8.2512                 3.2171
 Frc consts  --      2.0433                 8.3589                 3.8328
 IR Inten    --    196.4671               107.6023                 0.8175

                     34                     35                     36
                      A                      A                      A
 Frequencies --   1448.7035              1481.6581              1495.2434
 Red. masses --      2.6427                 1.2184                 1.0461
 Frc consts  --      3.2678                 1.5759                 1.3780
 IR Inten    --    159.3742                11.7106                 6.8819

                     37                     38                     39
                      A                      A                      A
 Frequencies --   1509.6304              1582.2689              1623.7778
 Red. masses --      1.0514                 6.6768                 7.2644
 Frc consts  --      1.4118                 9.8487                11.2850
 IR Inten    --      8.5306                50.2757                20.9570

                     40                     41                     42
                      A                      A                      A
 Frequencies --   1825.5792              3069.3003              3148.7002
 Red. masses --     12.0260                 1.0296                 1.1072
 Frc consts  --     23.6142                 5.7150                 6.4673
 IR Inten    --    211.6134                31.3306                16.4784

                     43                     44                     45
                      A                      A                      A
 Frequencies --   3182.0300              3198.9190              3251.9434
 Red. masses --      1.1074                 1.0925                 1.0921
 Frc consts  --      6.6066                 6.5866                 6.8042
 IR Inten    --     12.6875                 4.2966                 1.9673

 - Thermochemistry -
 -------------------
 Temperature   298.150 Kelvin.  Pressure   1.00000 Atm.
 Atom     1 has atomic number  6 and mass  12.00000

 Molecular mass:   248.91922 amu.
 Principal axes and moments of inertia in atomic units:
                           1         2         3
     Eigenvalues --  2058.301515434.682427446.92332
           X            0.99832   0.05788   0.00036
           Y           -0.05788   0.99832   0.00249
           Z           -0.00022  -0.00250   1.00000
 This molecule is an asymmetric top.
 Rotational symmetry number  1.
 Warning -- assumption of classical behavior for rotation
           may cause significant error
 Rotational temperatures (Kelvin)      0.04208     0.01594     0.01163
 Rotational constants (GHZ):           0.87681     0.33208     0.24235
 Zero-point vibrational energy     293613.2 (Joules/Mol)
                                   70.17523 (Kcal/Mol)
 Warning -- explicit consideration of  16 degrees of freedom as
           vibrations may cause significant error
 Vibrational temperatures:     37.93   108.26   143.98   157.91   191.99
          (Kelvin)            266.90   288.13   375.29   396.91   462.02
                              508.54   531.55   646.91   695.85   754.55
                              821.31   965.85  1049.58  1121.44  1132.77
                             1257.23  1363.53  1400.33  1434.61  1568.72
                             1644.03  1672.42  1698.27  1748.13  1815.52
                             1849.33  1886.61  2045.94  2084.36  2131.78
                             2151.32  2172.02  2276.53  2336.25  2626.60
                             4416.04  4530.28  4578.23  4602.53  4678.82

 Zero-point correction=                           0.111831 (Hartree/Particle)
 Thermal correction to Energy=                    0.123246
 Thermal correction to Enthalpy=                  0.124190
 Thermal correction to Gibbs Free Energy=         0.071618
 Sum of electronic and zero-point Energies=          -3506.785932
 Sum of electronic and thermal Energies=             -3506.774518
 Sum of electronic and thermal Enthalpies=           -3506.773573
 Sum of electronic and thermal Free Energies=        -3506.826145

                     E (Thermal)             CV                S
                      KCal/Mol        Cal/Mol-Kelvin    Cal/Mol-Kelvin
 Total                   77.338             39.525            110.647
 Electronic               0.000              0.000              0.000
 Translational            0.889              2.981             42.436
 Rotational               0.889              2.981             32.788
 Vibrational             75.560             33.563             35.422
 Vibration     1          0.593              1.985              6.086
 Vibration     2          0.599              1.966              4.011
 Vibration     3          0.604              1.949              3.453
 Vibration     4          0.606              1.941              3.273
 Vibration     5          0.613              1.920              2.896
 Vibration     6          0.632              1.860              2.272
 Vibration     7          0.638              1.840              2.131
 Vibration     8          0.669              1.744              1.656
 Vibration     9          0.678              1.718              1.559
 Vibration    10          0.707              1.633              1.304
 Vibration    11          0.730              1.568              1.151
 Vibration    12          0.742              1.535              1.082
 Vibration    13          0.809              1.362              0.797
 Vibration    14          0.840              1.286              0.700
 Vibration    15          0.879              1.196              0.600
 Vibration    16          0.927              1.094              0.503

 Optimization completed.
    -- Stationary point found.
 Normal termination of Gaussian 16 at Tue Sep 17 09:53:06 2024.

 ----------------------------------------------------------------------
 #p M062X/def2tzvp geom=check guess=read scf(xqc,tight) integral(grid=u
 ltrafine) scrf(SMD, solvent=1,4-Dioxane) polar prop=efg volume
 ----------------------------------------------------------------------

 ---
 spe
 ---
 Structure from the checkpoint file:  "smiles_00077_conf_3.chk"
 Charge =  0 Multiplicity = 1

 SCF Done:  E(RM062X) =  -3509.35213568     A.U. after   12 cycles

  Exact polarizability:     199.702      -9.458     154.133      -1.295      -0.080      80.587
 Approx polarizability:     210.023     -15.291     170.617      -3.161       0.251     102.910

 Normal termination of Gaussian 16 at Tue Sep 17 10:34:19 2024.
 Gaussian 16:  ES64L-G16RevC.02  7-Dec-2021

 ----------------------------------------------------------------------
 #p M062X/def2tzvp geom=check guess=read scf(xqc,tight) integral(grid=u
 ltrafine) scrf(SMD, solvent=1,4-Dioxane) nmr=giao
 ----------------------------------------------------------------------

 ---
 spe
 ---
 Structure from the checkpoint file:  "smiles_00077_conf_3.chk"
 Charge =  0 Multiplicity = 1

                         Standard orientation:
 ---------------------------------------------------------------------
 Center     Atomic      Atomic             Coordinates (Angstroms)
 Number     Number       Type             X           Y           Z
 ---------------------------------------------------------------------
      1          6           0       -2.886038   -3.086037   -0.144438
      2          8           0       -1.805633   -2.141459   -0.232398
      3          6           0       -2.131313   -0.872803    0.108773
      4          8           0       -3.244913   -0.540005    0.443650
      5          6           0       -0.931583    0.018477    0.031009
      6          6           0        0.346038   -0.554817    0.034523
      7          6           0        1.464305    0.266138    0.005637
      8         35           0        3.214726   -0.473499    0.019957
      9          6           0        1.288661    1.647499   -0.032978
     10          7           0        0.077388    2.205216   -0.053378
     11          6           0       -0.994593    1.427234   -0.021548
     12         17           0       -2.514371    2.282339   -0.090237
     13          1           0       -3.701535   -2.793297   -0.809136
     14          1           0       -3.265284   -3.138719    0.878580
     15          1           0       -2.462974   -4.041992   -0.449710
     16          1           0        0.446511   -1.631284    0.063906
     17          1           0        2.141963    2.319046   -0.050337
 ---------------------------------------------------------------------

 SCF Done:  E(RM062X) =  -3509.35213568     A.U. after    1 cycles

      1  C    Isotropic =   130.0539   Anisotropy =    73.2880

      2  O    Isotropic =   126.8810   Anisotropy =   167.3692

      3  C    Isotropic =     3.1800   Anisotropy =   102.0468

      4  O    Isotropic =  -168.8521   Anisotropy =   744.6245

      5  C    Isotropic =    38.8041   Anisotropy =   165.8517

      6  C    Isotropic =    16.3587   Anisotropy =   209.3771

      7  C    Isotropic =    29.6050   Anisotropy =   144.7932

      8  Br   Isotropic =  2122.5123   Anisotropy =  1206.8890

      9  C    Isotropic =     6.9244   Anisotropy =   178.0278

     10  N    Isotropic =  -140.5939   Anisotropy =   560.7562

     11  C    Isotropic =     3.8383   Anisotropy =   139.1671

     12  Cl   Isotropic =   581.0853   Anisotropy =   538.7089

     13  H    Isotropic =    27.8963   Anisotropy =     8.2401

     14  H    Isotropic =    27.9705   Anisotropy =     8.2887

     15  H    Isotropic =    27.9887   Anisotropy =     7.6564

     16  H    Isotropic =    22.5368   Anisotropy =    14.3623

     17  H    Isotropic =    22.4665   Anisotropy =    11.0070

 The electronic state is 1-A.
 Alpha  occ. eigenvalues -- -485.39443-102.65320 -63.37913 -57.19866 -57.19617
 Alpha  occ. eigenvalues --  -57.19612 -19.68587 -19.63311 -14.78400 -10.69577
 Alpha  occ. eigenvalues --  -10.66527 -10.62587 -10.61447 -10.60003 -10.59596
 Alpha  occ. eigenvalues --  -10.59522  -9.81588  -9.04556  -7.53791  -7.53281
 Alpha  occ. eigenvalues --   -7.53223  -6.86991  -6.86071  -6.86051  -2.90368
 Alpha  occ. eigenvalues --   -2.90034  -2.90011  -2.89153  -2.89153  -1.24729
 Alpha  occ. eigenvalues --   -1.15533  -1.10157  -0.97447  -0.95736  -0.91420
 Alpha  occ. eigenvalues --   -0.84286  -0.82912  -0.76657  -0.72390  -0.66956
 Alpha  occ. eigenvalues --   -0.62731  -0.60854  -0.59563  -0.58014  -0.56408
 Alpha  occ. eigenvalues --   -0.52684  -0.51345  -0.50772  -0.50254  -0.47864
 Alpha  occ. eigenvalues --   -0.46625  -0.44330  -0.43909  -0.40295  -0.39162
 Alpha  occ. eigenvalues --   -0.38809  -0.37723  -0.36861  -0.36412  -0.35522
 Alpha  occ. eigenvalues --   -0.31523
 Alpha virt. eigenvalues --   -0.04765  -0.02289   0.02164   0.06322   0.06861
 Alpha virt. eigenvalues --    0.08163   0.10179   0.11123   0.11708   0.13150
 Alpha virt. eigenvalues --    0.14539   0.14938   0.16570   0.17048   0.17416

 Mulliken charges:
               1
     1  C   -0.265023
     2  O   -0.280128
     3  C    0.350864
     4  O   -0.326206
     5  C   -0.030808
     6  C   -0.114047
     7  C    0.014071
     8  Br  -0.069752
     9  C   -0.040656
    10  N   -0.204982
    11  C    0.111144
    12  Cl  -0.026632
    13  H    0.163900
    14  H    0.163942
    15  H    0.158642
    16  H    0.206935
    17  H    0.188736
 Sum of Mulliken charges =   0.00000

 Dipole moment (field-independent basis, Debye):
    X=              1.6384    Y=             -3.6665    Z=             -0.3847  Tot=              4.0343
 Quadrupole moment (field-independent basis, Debye-Ang):
   XX=            -91.6071   YY=            -82.8792   ZZ=            -88.4162
   XY=             10.6789   XZ=              2.4468   YZ=              0.1647

 Normal termination of Gaussian 16 at Tue Sep 17 10:49:13 2024.
