 Gaussian 16, Revision C.02,

 ----------------------------------------------------------------------
 #p B3LYP/6-31G(d,p) EmpiricalDispersion=GD3BJ opt freq scf(xqc,tight)
 integral(grid=ultrafine)
 ----------------------------------------------------------------------

 ----------------------------------
 opt-freq conformers_unique/conf_ac
 ----------------------------------
 Symbolic Z-matrix:
 Charge =  0 Multiplicity = 1

 SCF Done:  E(RB3LYP) =  -2972.07203309     A.U. after   15 cycles
 SCF Done:  E(RB3LYP) =  -2972.07460226     A.U. after   13 cycles
 SCF Done:  E(RB3LYP) =  -2972.07505716     A.U. after   13 cycles
 SCF Done:  E(RB3LYP) =  -2972.07583289     A.U. after   13 cycles
 SCF Done:  E(RB3LYP) =  -2972.07620044     A.U. after   12 cycles
 SCF Done:  E(RB3LYP) =  -2972.07655679     A.U. after   13 cycles
 SCF Done:  E(RB3LYP) =  -2972.07697841     A.U. after   12 cycles
 SCF Done:  E(RB3LYP) =  -2972.07757262     A.U. after   13 cycles
 SCF Done:  E(RB3LYP) =  -2972.07789695     A.U. after   13 cycles
 SCF Done:  E(RB3LYP) =  -2972.07791663     A.U. after   12 cycles
 SCF Done:  E(RB3LYP) =  -2972.07800165     A.U. after   10 cycles
 SCF Done:  E(RB3LYP) =  -2972.07801994     A.U. after   10 cycles
 SCF Done:  E(RB3LYP) =  -2972.07801996     A.U. after    9 cycles
 SCF Done:  E(RB3LYP) =  -2972.07802053     A.U. after    7 cycles
 SCF Done:  E(RB3LYP) =  -2972.07802055     A.U. after    7 cycles
 Optimization completed.
    -- Stationary point found.
 Normal termination of Gaussian 16 at Tue Sep 17 09:50:33 2024.

 ----------------------------------------------------------------------
 #P Geom=AllCheck Guess=TCheck SCRF=Check GenChk RB3LYP/6-31G(d,p) Freq
 ----------------------------------------------------------------------

 Structure from the checkpoint file:  "smiles_00104_conf_2.chk"
 ----------------------------------
 opt-freq conformers_unique/conf_ac
 ----------------------------------
 Charge =  0 Multiplicity = 1

 SCF Done:  E(RB3LYP) =  -2972.07802055     A.U. after    1 cycles

                      1                      2                      3
                      A                      A                      A
 Frequencies --     67.6048                73.9232               154.9419
 Red. masses --      4.0757                 8.8829                 6.0991
 Frc consts  --      0.0110                 0.0286                 0.0863
 IR Inten    --      4.0802                 3.3066                 4.1373

                      4                      5                      6
                      A                      A                      A
 Frequencies --    165.2022               244.1466               247.9927
 Red. masses --      1.0332                 6.5565                10.6063
 Frc consts  --      0.0166                 0.2303                 0.3843
 IR Inten    --      0.3223                 1.3284                 3.5631

                      7                      8                      9
                      A                      A                      A
 Frequencies --    292.5965               417.9231               419.1082
 Red. masses --      5.6910                 3.6976                 3.3862
 Frc consts  --      0.2871                 0.3805                 0.3504
 IR Inten    --      3.5954                13.3052                 3.3814

                     10                     11                     12
                      A                      A                      A
 Frequencies --    476.2823               494.2854               608.6301
 Red. masses --      3.2624                 7.1929                 2.5901
 Frc consts  --      0.4360                 1.0354                 0.5653
 IR Inten    --      0.9340                11.1929                 3.4402

                     13                     14                     15
                      A                      A                      A
 Frequencies --    616.3317               641.7522               760.8967
 Red. masses --      4.2173                 7.6301                 5.0645
 Frc consts  --      0.9439                 1.8515                 1.7276
 IR Inten    --      8.9945                 1.9354                 4.5175

                     16                     17                     18
                      A                      A                      A
 Frequencies --    788.0695               865.1364               952.8785
 Red. masses --      6.7538                 1.3654                 1.3921
 Frc consts  --      2.4713                 0.6021                 0.7448
 IR Inten    --     32.5767                20.9562                 2.1741

                     19                     20                     21
                      A                      A                      A
 Frequencies --    967.1132              1016.0321              1033.3758
 Red. masses --      2.1663                 1.3413                 3.7376
 Frc consts  --      1.1938                 0.8158                 2.3516
 IR Inten    --     41.1158                 0.8612                14.8125

                     22                     23                     24
                      A                      A                      A
 Frequencies --   1050.4578              1101.3239              1121.1149
 Red. masses --      1.8575                 3.3718                 2.5825
 Frc consts  --      1.2076                 2.4096                 1.9125
 IR Inten    --      1.1344                18.7945               142.2909

                     25                     26                     27
                      A                      A                      A
 Frequencies --   1151.5093              1293.3782              1325.2924
 Red. masses --      1.2810                 3.3174                 4.3979
 Frc consts  --      1.0008                 3.2696                 4.5511
 IR Inten    --      9.7159               176.2876                 0.5204

                     28                     29                     30
                      A                      A                      A
 Frequencies --   1331.2409              1391.0042              1404.4681
 Red. masses --      1.7853                 1.9809                 1.7742
 Frc consts  --      1.8641                 2.2583                 2.0620
 IR Inten    --     25.6902                10.2085               138.5186

                     31                     32                     33
                      A                      A                      A
 Frequencies --   1481.2121              1491.1753              1505.1536
 Red. masses --      1.0686                 1.0471                 2.2952
 Frc consts  --      1.3814                 1.3718                 3.0637
 IR Inten    --     12.1476                10.4527                33.3244

                     34                     35                     36
                      A                      A                      A
 Frequencies --   1603.5796              1633.3170              1784.5265
 Red. masses --      7.4000                 5.5347                10.9445
 Frc consts  --     11.2115                 8.6993                20.5348
 IR Inten    --     40.8449               196.3828               162.8627

                     37                     38                     39
                      A                      A                      A
 Frequencies --   3050.9697              3114.4642              3173.0891
 Red. masses --      1.0379                 1.0999                 1.1019
 Frc consts  --      5.6925                 6.2860                 6.5367
 IR Inten    --      2.0660                 6.7227                10.4832

                     40                     41                     42
                      A                      A                      A
 Frequencies --   3191.4181              3219.4270              3237.4160
 Red. masses --      1.0906                 1.0895                 1.0958
 Frc consts  --      6.5446                 6.6534                 6.7670
 IR Inten    --     13.6361                 0.7604                 1.1028

 - Thermochemistry -
 -------------------
 Temperature   298.150 Kelvin.  Pressure   1.00000 Atm.
 Atom     1 has atomic number  6 and mass  12.00000

 Molecular mass:   198.96327 amu.
 Principal axes and moments of inertia in atomic units:
                           1         2         3
     Eigenvalues --   483.143624775.708385247.64392
           X            0.99984  -0.01810  -0.00000
           Y            0.01810   0.99984   0.00000
           Z            0.00000  -0.00000   1.00000
 This molecule is an asymmetric top.
 Rotational symmetry number  1.
 Warning -- assumption of classical behavior for rotation
           may cause significant error
 Rotational temperatures (Kelvin)      0.17927     0.01814     0.01651
 Rotational constants (GHZ):           3.73541     0.37790     0.34391
 Zero-point vibrational energy     304807.1 (Joules/Mol)
                                   72.85064 (Kcal/Mol)
 Warning -- explicit consideration of  13 degrees of freedom as
           vibrations may cause significant error
 Vibrational temperatures:     97.27   106.36   222.93   237.69   351.27
          (Kelvin)            356.81   420.98   601.30   603.00   685.26
                              711.17   875.68   886.76   923.34  1094.76
                             1133.86  1244.74  1370.98  1391.46  1461.84
                             1486.80  1511.37  1584.56  1613.03  1656.77
                             1860.88  1906.80  1915.36  2001.34  2020.72
                             2131.13  2145.47  2165.58  2307.19  2349.98
                             2567.54  4389.66  4481.02  4565.37  4591.74
                             4632.04  4657.92

 Zero-point correction=                           0.116095 (Hartree/Particle)
 Thermal correction to Energy=                    0.125231
 Thermal correction to Enthalpy=                  0.126175
 Thermal correction to Gibbs Free Energy=         0.080166
 Sum of electronic and zero-point Energies=          -2971.961926
 Sum of electronic and thermal Energies=             -2971.952790
 Sum of electronic and thermal Enthalpies=           -2971.951846
 Sum of electronic and thermal Free Energies=        -2971.997854

                     E (Thermal)             CV                S
                      KCal/Mol        Cal/Mol-Kelvin    Cal/Mol-Kelvin
 Total                   78.584             32.869             96.833
 Electronic               0.000              0.000              0.000
 Translational            0.889              2.981             41.769
 Rotational               0.889              2.981             30.871
 Vibrational             76.806             26.907             24.193
 Vibration     1          0.598              1.970              4.222
 Vibration     2          0.599              1.966              4.046
 Vibration     3          0.620              1.897              2.611
 Vibration     4          0.624              1.885              2.489
 Vibration     5          0.659              1.772              1.772
 Vibration     6          0.662              1.766              1.745
 Vibration     7          0.688              1.688              1.459
 Vibration     8          0.781              1.431              0.899
 Vibration     9          0.782              1.429              0.895
 Vibration    10          0.833              1.303              0.720
 Vibration    11          0.850              1.263              0.673
 Vibration    12          0.968              1.014              0.435
 Vibration    13          0.976              0.997              0.422

 Optimization completed.
    -- Stationary point found.
 Normal termination of Gaussian 16 at Tue Sep 17 09:51:19 2024.

 ----------------------------------------------------------------------
 #p M062X/def2tzvp geom=check guess=read scf(xqc,tight) integral(grid=u
 ltrafine) scrf(SMD, solvent=1,4-Dioxane) polar prop=efg volume
 ----------------------------------------------------------------------

 ---
 spe
 ---
 Structure from the checkpoint file:  "smiles_00104_conf_2.chk"
 Charge =  0 Multiplicity = 1

 SCF Done:  E(RM062X) =  -2974.51879619     A.U. after   12 cycles

  Exact polarizability:     189.872       0.401     120.908       0.000      -0.000      70.638
 Approx polarizability:     185.704       6.551     147.223       0.000      -0.000      88.358

 Normal termination of Gaussian 16 at Tue Sep 17 10:12:25 2024.
 Gaussian 16:  ES64L-G16RevC.02  7-Dec-2021

 ----------------------------------------------------------------------
 #p M062X/def2tzvp geom=check guess=read scf(xqc,tight) integral(grid=u
 ltrafine) scrf(SMD, solvent=1,4-Dioxane) nmr=giao
 ----------------------------------------------------------------------

 ---
 spe
 ---
 Structure from the checkpoint file:  "smiles_00104_conf_2.chk"
 Charge =  0 Multiplicity = 1

                         Standard orientation:
 ---------------------------------------------------------------------
 Center     Atomic      Atomic             Coordinates (Angstroms)
 Number     Number       Type             X           Y           Z
 ---------------------------------------------------------------------
      1          6           0        4.002401   -1.178892   -0.000031
      2          6           0        3.237430    0.128629   -0.000012
      3          8           0        3.816667    1.203116   -0.000017
      4          6           0        1.741376    0.084176    0.000018
      5          6           0        1.026019    1.291874    0.000018
      6          6           0       -0.358679    1.265883    0.000023
      7          6           0       -0.972685    0.007570    0.000026
      8         35           0       -2.885241   -0.067929   -0.000016
      9          7           0       -0.334036   -1.146697    0.000034
     10          6           0        1.005510   -1.104092    0.000040
     11          1           0        3.751200   -1.777309   -0.882357
     12          1           0        3.751310   -1.777265    0.882356
     13          1           0        5.070035   -0.960754   -0.000102
     14          1           0        1.580100    2.224306    0.000008
     15          1           0       -0.953149    2.170613    0.000024
     16          1           0        1.500621   -2.071010    0.000044
 ---------------------------------------------------------------------

 SCF Done:  E(RM062X) =  -2974.51879619     A.U. after    1 cycles

      1  C    Isotropic =   155.9255   Anisotropy =    49.6333

      2  C    Isotropic =   -39.4814   Anisotropy =   210.9904

      3  O    Isotropic =  -416.8134   Anisotropy =  1161.0568

      4  C    Isotropic =    32.6713   Anisotropy =   199.1408

      5  C    Isotropic =    22.9298   Anisotropy =   244.8919

      6  C    Isotropic =    35.1168   Anisotropy =   176.3179

      7  C    Isotropic =    -4.0669   Anisotropy =   126.2489

      8  Br   Isotropic =  1898.1523   Anisotropy =  1482.9714

      9  N    Isotropic =  -134.8833   Anisotropy =   576.1634

     10  C    Isotropic =     9.9531   Anisotropy =   195.5867

     11  H    Isotropic =    28.9751   Anisotropy =     4.5515

     12  H    Isotropic =    28.9752   Anisotropy =     4.5518

     13  H    Isotropic =    29.3841   Anisotropy =     6.3192

     14  H    Isotropic =    22.5752   Anisotropy =     7.9376

     15  H    Isotropic =    23.5417   Anisotropy =    11.0076

     16  H    Isotropic =    21.9402   Anisotropy =     8.8275

 The electronic state is 1-A.
 Alpha  occ. eigenvalues -- -485.38191 -63.36687 -57.18628 -57.18399 -57.18382
 Alpha  occ. eigenvalues --  -19.63000 -14.77735 -10.65095 -10.64699 -10.60589
 Alpha  occ. eigenvalues --  -10.58088 -10.57475 -10.57398 -10.54499  -9.03342
 Alpha  occ. eigenvalues --   -6.85742  -6.84894  -6.84835  -2.89120  -2.88821
 Alpha  occ. eigenvalues --   -2.88761  -2.87972  -2.87971  -1.17681  -1.08945
 Alpha  occ. eigenvalues --   -0.93430  -0.92100  -0.86651  -0.82852  -0.75053
 Alpha  occ. eigenvalues --   -0.72484  -0.65570  -0.59956  -0.58720  -0.54985
 Alpha  occ. eigenvalues --   -0.53067  -0.52907  -0.51312  -0.50263  -0.48611
 Alpha  occ. eigenvalues --   -0.46348  -0.44338  -0.44273  -0.38874  -0.36623
 Alpha  occ. eigenvalues --   -0.36133  -0.35822  -0.33917  -0.31953
 Alpha virt. eigenvalues --   -0.04589  -0.01615   0.03288   0.05378   0.07129
 Alpha virt. eigenvalues --    0.10076   0.12238   0.12690   0.13104   0.14302
 Alpha virt. eigenvalues --    0.14723   0.17143   0.17165   0.18163   0.19987

 Mulliken charges:
               1
     1  C   -0.536383
     2  C    0.292584
     3  O   -0.331246
     4  C    0.004528
     5  C   -0.126095
     6  C   -0.190815
     7  C    0.157461
     8  Br  -0.089353
     9  N   -0.223359
    10  C   -0.068355
    11  H    0.185528
    12  H    0.185531
    13  H    0.171408
    14  H    0.194393
    15  H    0.188445
    16  H    0.185729
 Sum of Mulliken charges =  -0.00000

 Dipole moment (field-independent basis, Debye):
    X=              1.2234    Y=             -0.6437    Z=              0.0000  Tot=              1.3825
 Quadrupole moment (field-independent basis, Debye-Ang):
   XX=            -76.2103   YY=            -68.4785   ZZ=            -71.3024
   XY=            -14.0291   XZ=              0.0001   YZ=              0.0001

 Normal termination of Gaussian 16 at Tue Sep 17 10:20:05 2024.
