 Gaussian 16, Revision C.02,

 ----------------------------------------------------------------------
 #p B3LYP/6-31G(d,p) EmpiricalDispersion=GD3BJ opt freq scf(xqc,tight)
 integral(grid=ultrafine)
 ----------------------------------------------------------------------

 ----------------------------------
 opt-freq conformers_unique/conf_aa
 ----------------------------------
 Symbolic Z-matrix:
 Charge =  0 Multiplicity = 1

 SCF Done:  E(RB3LYP) =  -845.538752862     A.U. after   14 cycles
 SCF Done:  E(RB3LYP) =  -845.540102351     A.U. after   12 cycles
 SCF Done:  E(RB3LYP) =  -845.540141105     A.U. after    9 cycles
 SCF Done:  E(RB3LYP) =  -845.540146583     A.U. after    8 cycles
 Optimization completed.
    -- Stationary point found.
 Normal termination of Gaussian 16 at Tue Sep 17 09:48:59 2024.

 ----------------------------------------------------------------------
 #P Geom=AllCheck Guess=TCheck SCRF=Check GenChk RB3LYP/6-31G(d,p) Freq
 ----------------------------------------------------------------------

 Structure from the checkpoint file:  "smiles_00073_conf_0.chk"
 ----------------------------------
 opt-freq conformers_unique/conf_aa
 ----------------------------------
 Charge =  0 Multiplicity = 1

 SCF Done:  E(RB3LYP) =  -845.540146583     A.U. after    1 cycles

                      1                      2                      3
                      A                      A                      A
 Frequencies --    100.9837               183.3537               217.6500
 Red. masses --      6.4357                 3.7240                 7.7917
 Frc consts  --      0.0387                 0.0738                 0.2175
 IR Inten    --      0.0044                 0.7429                 0.0711

                      4                      5                      6
                      A                      A                      A
 Frequencies --    272.8220               357.5363               403.9736
 Red. masses --      5.2132                11.2412                 3.2797
 Frc consts  --      0.2286                 0.8466                 0.3154
 IR Inten    --      0.1740                 2.9219                 0.0942

                      7                      8                      9
                      A                      A                      A
 Frequencies --    417.7207               484.6300               519.6486
 Red. masses --      4.4019                 2.6085                 3.7958
 Frc consts  --      0.4525                 0.3610                 0.6039
 IR Inten    --      3.3430                11.7312                 0.0420

                     10                     11                     12
                      A                      A                      A
 Frequencies --    526.7026               614.1770               636.1320
 Red. masses --      6.7834                 7.2146                 3.6032
 Frc consts  --      1.1087                 1.6034                 0.8591
 IR Inten    --      0.0709                14.3954                 0.5552

                     13                     14                     15
                      A                      A                      A
 Frequencies --    656.3700               759.4548               771.4543
 Red. masses --      7.0922                 1.2773                 2.8524
 Frc consts  --      1.8002                 0.4341                 1.0002
 IR Inten    --      2.5546                15.8252                 4.4135

                     16                     17                     18
                      A                      A                      A
 Frequencies --    787.1569               826.1871               863.9541
 Red. masses --      4.6678                 1.3974                 5.9805
 Frc consts  --      1.7041                 0.5620                 2.6301
 IR Inten    --      1.1944                33.0199                30.4870

                     19                     20                     21
                      A                      A                      A
 Frequencies --    870.8982               900.7451               956.1019
 Red. masses --      1.3902                 1.5831                 5.1918
 Frc consts  --      0.6212                 0.7568                 2.7962
 IR Inten    --     19.7133                 7.2271                21.8946

                     22                     23                     24
                      A                      A                      A
 Frequencies --    958.3971               970.4718               995.3853
 Red. masses --      1.3053                 1.3308                 1.2792
 Frc consts  --      0.7064                 0.7385                 0.7468
 IR Inten    --      1.4479                 1.2544                 0.0048

                     25                     26                     27
                      A                      A                      A
 Frequencies --   1051.6962              1102.1806              1161.1252
 Red. masses --      2.3104                 2.2862                 1.5900
 Frc consts  --      1.5056                 1.6364                 1.2630
 IR Inten    --      0.7099                34.0700                 9.8641

                     28                     29                     30
                      A                      A                      A
 Frequencies --   1179.0012              1185.4503              1235.8346
 Red. masses --      1.2192                 1.1628                 2.1584
 Frc consts  --      0.9985                 0.9628                 1.9423
 IR Inten    --      2.1095                 0.0305                 9.9907

                     31                     32                     33
                      A                      A                      A
 Frequencies --   1268.3827              1293.7986              1386.1855
 Red. masses --      1.4802                 1.7980                 2.0290
 Frc consts  --      1.4031                 1.7733                 2.2971
 IR Inten    --      2.1444                 6.2906                 1.7188

                     34                     35                     36
                      A                      A                      A
 Frequencies --   1408.8893              1421.6103              1480.5202
 Red. masses --      3.7768                 7.5966                 2.4816
 Frc consts  --      4.4170                 9.0455                 3.2049
 IR Inten    --      7.7558                 0.4519                 1.3062

                     37                     38                     39
                      A                      A                      A
 Frequencies --   1501.7444              1556.3117              1627.1853
 Red. masses --      2.1798                 3.4089                 7.1493
 Frc consts  --      2.8964                 4.8648                11.1528
 IR Inten    --     14.4508                20.2234                 1.1860

                     40                     41                     42
                      A                      A                      A
 Frequencies --   1649.8206              1684.2836              3179.4070
 Red. masses --      5.5335                 6.1890                 1.0859
 Frc consts  --      8.8740                10.3443                 6.4672
 IR Inten    --     32.4362                10.4410                 2.2724

                     43                     44                     45
                      A                      A                      A
 Frequencies --   3183.9240              3187.9427              3197.1512
 Red. masses --      1.0885                 1.0890                 1.0938
 Frc consts  --      6.5015                 6.5210                 6.5874
 IR Inten    --      0.5732                 6.8928                27.1651

                     46                     47                     48
                      A                      A                      A
 Frequencies --   3208.9869              3210.1165              3223.2676
 Red. masses --      1.0945                 1.0950                 1.0943
 Frc consts  --      6.6405                 6.6485                 6.6983
 IR Inten    --     15.4543                11.8062                 4.0137

 - Thermochemistry -
 -------------------
 Temperature   298.150 Kelvin.  Pressure   1.00000 Atm.
 Atom     1 has atomic number 17 and mass  34.96885

 Molecular mass:   162.02363 amu.
 Principal axes and moments of inertia in atomic units:
                           1         2         3
     Eigenvalues --   660.902213122.120833783.02304
           X            0.99996  -0.00908  -0.00005
           Y            0.00908   0.99996  -0.00000
           Z            0.00005   0.00000   1.00000
 This molecule is an asymmetric top.
 Rotational symmetry number  1.
 Warning -- assumption of classical behavior for rotation
           may cause significant error
 Rotational temperatures (Kelvin)      0.13105     0.02774     0.02290
 Rotational constants (GHZ):           2.73072     0.57805     0.47706
 Zero-point vibrational energy     362688.1 (Joules/Mol)
                                   86.68455 (Kcal/Mol)
 Warning -- explicit consideration of  11 degrees of freedom as
           vibrations may cause significant error
 Vibrational temperatures:    145.29   263.81   313.15   392.53   514.42
          (Kelvin)            581.23   601.01   697.27   747.66   757.81
                              883.66   915.25   944.37  1092.69  1109.95
                             1132.54  1188.70  1243.04  1253.03  1295.97
                             1375.62  1378.92  1396.29  1432.14  1513.16
                             1585.79  1670.60  1696.32  1705.60  1778.09
                             1824.92  1861.49  1994.41  2027.08  2045.38
                             2130.14  2160.68  2239.19  2341.16  2373.72
                             2423.31  4574.46  4580.96  4586.74  4599.99
                             4617.02  4618.64  4637.56

 Zero-point correction=                           0.138141 (Hartree/Particle)
 Thermal correction to Energy=                    0.146175
 Thermal correction to Enthalpy=                  0.147119
 Thermal correction to Gibbs Free Energy=         0.104748
 Sum of electronic and zero-point Energies=           -845.402006
 Sum of electronic and thermal Energies=              -845.393972
 Sum of electronic and thermal Enthalpies=            -845.393028
 Sum of electronic and thermal Free Energies=         -845.435398

                     E (Thermal)             CV                S
                      KCal/Mol        Cal/Mol-Kelvin    Cal/Mol-Kelvin
 Total                   91.726             32.678             89.176
 Electronic               0.000              0.000              0.000
 Translational            0.889              2.981             41.156
 Rotational               0.889              2.981             30.435
 Vibrational             89.948             26.717             17.584
 Vibration     1          0.604              1.948              3.435
 Vibration     2          0.631              1.862              2.294
 Vibration     3          0.646              1.814              1.979
 Vibration     4          0.676              1.723              1.578
 Vibration     5          0.733              1.560              1.133
 Vibration     6          0.769              1.462              0.948
 Vibration     7          0.781              1.432              0.900
 Vibration     8          0.841              1.284              0.698
 Vibration     9          0.875              1.206              0.611
 Vibration    10          0.882              1.191              0.595
 Vibration    11          0.974              1.002              0.426

 Optimization completed.
    -- Stationary point found.
 Normal termination of Gaussian 16 at Tue Sep 17 09:50:01 2024.

 ----------------------------------------------------------------------
 #p M062X/def2tzvp geom=check guess=read scf(xqc,tight) integral(grid=u
 ltrafine) scrf(SMD, solvent=1,4-Dioxane) polar prop=efg volume
 ----------------------------------------------------------------------

 ---
 spe
 ---
 Structure from the checkpoint file:  "smiles_00073_conf_0.chk"
 Charge =  0 Multiplicity = 1

 SCF Done:  E(RM062X) =  -845.471108442     A.U. after   11 cycles

  Exact polarizability:     232.981      -7.133     153.051       0.008       0.000      74.479
 Approx polarizability:     242.264      -7.118     181.527       0.008       0.000      93.871

 1\1\GINC-HPC-34-26\SP\RM062X\def2TZVP\C10H7Cl1\MANTIND\17-Sep-2024\0\\
 #p M062X/def2tzvp geom=check guess=read scf(xqc,tight) integral(grid=u
 ltrafine) scrf(SMD, solvent=1,4-Dioxane) polar prop=efg volume\\spe\\0
 ,1\Cl,0,3.3248196009,-0.4146060064,0.0001753296\C,0,1.6248145752,0.033
 0268651,0.0000877957\C,0,1.2905858265,1.4074720775,0.0000620257\C,0,-0
 .0335877519,1.7755400154,-0.0000072939\C,0,-1.0684348255,0.803988285,-
 0.0000562774\C,0,-2.4418865462,1.1596403783,-0.0001286454\C,0,-3.41937
 83773,0.1914811347,-0.0001739857\C,0,-3.0657252061,-1.1794968962,-0.00

 Normal termination of Gaussian 16 at Tue Sep 17 10:23:22 2024.
 Gaussian 16:  ES64L-G16RevC.02  7-Dec-2021

 ----------------------------------------------------------------------
 #p M062X/def2tzvp geom=check guess=read scf(xqc,tight) integral(grid=u
 ltrafine) scrf(SMD, solvent=1,4-Dioxane) nmr=giao
 ----------------------------------------------------------------------

 ---
 spe
 ---
 Structure from the checkpoint file:  "smiles_00073_conf_0.chk"
 Charge =  0 Multiplicity = 1

                         Standard orientation:
 ---------------------------------------------------------------------
 Center     Atomic      Atomic             Coordinates (Angstroms)
 Number     Number       Type             X           Y           Z
 ---------------------------------------------------------------------
      1         17           0       -3.400636   -0.452888   -0.000177
      2          6           0       -1.704606    0.009577   -0.000089
      3          6           0       -1.382396    1.386890   -0.000064
      4          6           0       -0.061488    1.766510    0.000006
      5          6           0        0.981806    0.804035    0.000055
      6          6           0        2.352099    1.171671    0.000127
      7          6           0        3.338010    0.212087    0.000172
      8          6           0        2.996346   -1.161928    0.000149
      9          6           0        1.677023   -1.551592    0.000080
     10          6           0        0.636545   -0.585600    0.000030
     11          6           0       -0.732280   -0.960138   -0.000044
     12          1           0       -2.178770    2.121779   -0.000101
     13          1           0        0.197870    2.821260    0.000028
     14          1           0        2.609240    2.227143    0.000144
     15          1           0        4.383167    0.504983    0.000225
     16          1           0        3.783187   -1.909754    0.000185
     17          1           0        1.412384   -2.605027    0.000063
     18          1           0       -1.002628   -2.010370   -0.000064
 ---------------------------------------------------------------------

 SCF Done:  E(RM062X) =  -845.471108442     A.U. after    1 cycles

      1  Cl   Isotropic =   683.4284   Anisotropy =   508.2640

      2  C    Isotropic =    24.7150   Anisotropy =   140.1256

      3  C    Isotropic =    36.9867   Anisotropy =   178.0342

      4  C    Isotropic =    33.9278   Anisotropy =   190.9318

      5  C    Isotropic =    30.9531   Anisotropy =   248.0827

      6  C    Isotropic =    35.5076   Anisotropy =   195.7049

      7  C    Isotropic =    37.4057   Anisotropy =   212.9922

      8  C    Isotropic =    35.7822   Anisotropy =   213.4156

      9  C    Isotropic =    36.0546   Anisotropy =   193.0912

     10  C    Isotropic =    28.4244   Anisotropy =   242.7406

     11  C    Isotropic =    37.1865   Anisotropy =   162.4907

     12  H    Isotropic =    23.5236   Anisotropy =     9.2031

     13  H    Isotropic =    23.0744   Anisotropy =     8.2943

     14  H    Isotropic =    23.0121   Anisotropy =     8.4479

     15  H    Isotropic =    23.4330   Anisotropy =     6.5686

     16  H    Isotropic =    23.3643   Anisotropy =     6.7497

     17  H    Isotropic =    23.0665   Anisotropy =     8.8923

     18  H    Isotropic =    23.0861   Anisotropy =    11.0784

 The electronic state is 1-A.
 Alpha  occ. eigenvalues -- -102.64633 -10.60864 -10.56277 -10.55980 -10.55645
 Alpha  occ. eigenvalues --  -10.55592 -10.55510 -10.54942 -10.54930 -10.54833
 Alpha  occ. eigenvalues --  -10.54748  -9.80880  -7.53074  -7.52569  -7.52555
 Alpha  occ. eigenvalues --   -1.00058  -0.96478  -0.91259  -0.87875  -0.83594
 Alpha  occ. eigenvalues --   -0.81423  -0.71853  -0.69385  -0.68681  -0.59727
 Alpha  occ. eigenvalues --   -0.58877  -0.56920  -0.52477  -0.51898  -0.49239
 Alpha  occ. eigenvalues --   -0.49122  -0.48290  -0.47417  -0.44358  -0.43570
 Alpha  occ. eigenvalues --   -0.40849  -0.39748  -0.38025  -0.37859  -0.35253
 Alpha  occ. eigenvalues --   -0.29932  -0.27375
 Alpha virt. eigenvalues --   -0.02449   0.00309   0.04345   0.06489   0.09324
 Alpha virt. eigenvalues --    0.09695   0.11594   0.12264   0.12733   0.12990
 Alpha virt. eigenvalues --    0.14665   0.15697   0.16003   0.18332   0.19288

 Mulliken charges:
               1
     1  Cl  -0.101545
     2  C    0.098280
     3  C   -0.189085
     4  C   -0.197004
     5  C    0.097103
     6  C   -0.204799
     7  C   -0.159540
     8  C   -0.152927
     9  C   -0.211389
    10  C    0.114022
    11  C   -0.240826
    12  H    0.173098
    13  H    0.161968
    14  H    0.158101
    15  H    0.163197
    16  H    0.163565
    17  H    0.158337
    18  H    0.169443
 Sum of Mulliken charges =  -0.00000

 Dipole moment (field-independent basis, Debye):
    X=              2.2863    Y=              0.5318    Z=              0.0001  Tot=              2.3473
 Quadrupole moment (field-independent basis, Debye-Ang):
   XX=            -68.3914   YY=            -60.7261   ZZ=            -76.0200
   XY=             -1.5896   XZ=              0.0004   YZ=             -0.0000

 1\1\GINC-HPC-34-26\SP\RM062X\def2TZVP\C10H7Cl1\MANTIND\17-Sep-2024\0\\
 #p M062X/def2tzvp geom=check guess=read scf(xqc,tight) integral(grid=u
 ltrafine) scrf(SMD, solvent=1,4-Dioxane) nmr=giao\\spe\\0,1\Cl,0,3.324
 8196009,-0.4146060064,0.0001753296\C,0,1.6248145752,0.0330268651,0.000
 0877957\C,0,1.2905858265,1.4074720775,0.0000620257\C,0,-0.0335877519,1
 .7755400154,-0.0000072939\C,0,-1.0684348255,0.803988285,-0.0000562774\
 C,0,-2.4418865462,1.1596403783,-0.0001286454\C,0,-3.4193783773,0.19148
 11347,-0.0001739857\C,0,-3.0657252061,-1.1794968962,-0.0001507319\C,0,

 Normal termination of Gaussian 16 at Tue Sep 17 10:35:09 2024.
