 Gaussian 16, Revision C.02,

 ----------------------------------------------------------------------
 #p B3LYP/6-31G(d,p) EmpiricalDispersion=GD3BJ opt freq scf(xqc,tight)
 integral(grid=ultrafine)
 ----------------------------------------------------------------------

 ----------------------------------
 opt-freq conformers_unique/conf_ae
 ----------------------------------
 Symbolic Z-matrix:
 Charge =  0 Multiplicity = 1

 SCF Done:  E(RB3LYP) =  -3031.23779495     A.U. after   15 cycles
 SCF Done:  E(RB3LYP) =  -3031.23884176     A.U. after   11 cycles
 SCF Done:  E(RB3LYP) =  -3031.23886910     A.U. after   11 cycles
 SCF Done:  E(RB3LYP) =  -3031.23888557     A.U. after   11 cycles
 SCF Done:  E(RB3LYP) =  -3031.23889491     A.U. after   10 cycles
 SCF Done:  E(RB3LYP) =  -3031.23890550     A.U. after    9 cycles
 Optimization completed.
    -- Stationary point found.
 Normal termination of Gaussian 16 at Tue Sep 17 09:45:34 2024.

 ----------------------------------------------------------------------
 #P Geom=AllCheck Guess=TCheck SCRF=Check GenChk RB3LYP/6-31G(d,p) Freq
 ----------------------------------------------------------------------

 Structure from the checkpoint file:  "smiles_00118_conf_4.chk"
 ----------------------------------
 opt-freq conformers_unique/conf_ae
 ----------------------------------
 Charge =  0 Multiplicity = 1

 SCF Done:  E(RB3LYP) =  -3031.23890550     A.U. after    1 cycles
 ******    1 imaginary frequencies (negative Signs) ******

                      1                      2                      3
                      A                      A                      A
 Frequencies --    -60.9248                89.6357               138.8351
 Red. masses --      3.0137                 8.8194                12.7472
 Frc consts  --      0.0066                 0.0417                 0.1448
 IR Inten    --      4.2961                 7.1507                 4.1444

                      4                      5                      6
                      A                      A                      A
 Frequencies --    156.4022               190.5810               212.9932
 Red. masses --      4.8394                 3.0633                 8.3911
 Frc consts  --      0.0697                 0.0656                 0.2243
 IR Inten    --      0.5069                 3.4041                 0.5772

                      7                      8                      9
                      A                      A                      A
 Frequencies --    281.6066               281.7615               311.0958
 Red. masses --      3.9435                 1.0657                 5.1375
 Frc consts  --      0.1843                 0.0498                 0.2929
 IR Inten    --      3.0542                 0.1400                 2.8753

                     10                     11                     12
                      A                      A                      A
 Frequencies --    350.9555               396.1993               465.2059
 Red. masses --      3.8718                 7.6419                 3.5204
 Frc consts  --      0.2810                 0.7068                 0.4489
 IR Inten    --      2.5496                 2.7688                 2.2988

                     13                     14                     15
                      A                      A                      A
 Frequencies --    546.1813               564.8566               606.9008
 Red. masses --      4.4156                 3.6027                 7.1675
 Frc consts  --      0.7761                 0.6773                 1.5554
 IR Inten    --     10.2474                 1.3449                42.8710

                     16                     17                     18
                      A                      A                      A
 Frequencies --    670.9412               728.9613               779.4806
 Red. masses --      7.5442                 3.9984                 5.0718
 Frc consts  --      2.0009                 1.2518                 1.8156
 IR Inten    --     15.7671                 1.2232                11.9175

                     19                     20                     21
                      A                      A                      A
 Frequencies --    842.9584               912.2148               941.8968
 Red. masses --      1.4640                 6.2414                 1.3429
 Frc consts  --      0.6129                 3.0600                 0.7020
 IR Inten    --     32.8201                30.1593                 6.4127

                     22                     23                     24
                      A                      A                      A
 Frequencies --    971.6026              1031.0752              1044.0808
 Red. masses --      1.3176                 1.7844                 5.0006
 Frc consts  --      0.7328                 1.1177                 3.2117
 IR Inten    --      1.7340                 0.3105                53.7535

                     25                     26                     27
                      A                      A                      A
 Frequencies --   1071.1624              1162.8884              1172.9158
 Red. masses --      3.1726                 1.2648                 1.2584
 Frc consts  --      2.1447                 1.0077                 1.0200
 IR Inten    --     14.7159                16.9086                 0.5636

                     28                     29                     30
                      A                      A                      A
 Frequencies --   1205.8985              1226.8194              1285.6224
 Red. masses --      1.4319                 2.1482                 1.4540
 Frc consts  --      1.2268                 1.9049                 1.4159
 IR Inten    --     70.6174                93.3098                10.7882

                     31                     32                     33
                      A                      A                      A
 Frequencies --   1302.5358              1361.4665              1418.9489
 Red. masses --      4.6118                 6.0555                 2.1737
 Frc consts  --      4.6099                 6.6132                 2.5786
 IR Inten    --    150.9571               305.7916                12.4405

                     34                     35                     36
                      A                      A                      A
 Frequencies --   1449.6831              1489.5293              1509.6632
 Red. masses --      1.6896                 1.4175                 1.0474
 Frc consts  --      2.0921                 1.8529                 1.4064
 IR Inten    --      6.6363                24.4352                36.0021

                     37                     38                     39
                      A                      A                      A
 Frequencies --   1511.8609              1542.3539              1604.4645
 Red. masses --      1.0476                 2.4582                 7.2869
 Frc consts  --      1.4109                 3.4454                11.0524
 IR Inten    --      8.4982                91.1157                 1.0060

                     40                     41                     42
                      A                      A                      A
 Frequencies --   1651.1013              1794.3735              2899.7639
 Red. masses --      5.9718                 9.7551                 1.0836
 Frc consts  --      9.5918                18.5058                 5.3685
 IR Inten    --    198.8238               243.5156               153.1487

                     43                     44                     45
                      A                      A                      A
 Frequencies --   3063.7734              3151.4539              3157.8111
 Red. masses --      1.0288                 1.1076                 1.1072
 Frc consts  --      5.6895                 6.4813                 6.5053
 IR Inten    --     51.4179                17.5744                22.6115

                     46                     47                     48
                      A                      A                      A
 Frequencies --   3187.4000              3218.8863              3223.5069
 Red. masses --      1.0893                 1.0933                 1.0913
 Frc consts  --      6.5201                 6.6740                 6.6810
 IR Inten    --      6.8076                 2.8613                 3.0706

 - Thermochemistry -
 -------------------
 Temperature   298.150 Kelvin.  Pressure   1.00000 Atm.
 Atom     1 has atomic number  6 and mass  12.00000

 Molecular mass:   213.96294 amu.
 Principal axes and moments of inertia in atomic units:
                           1         2         3
     Eigenvalues --  1502.435453276.265944767.27559
           X            0.99895  -0.04589  -0.00003
           Y            0.04589   0.99895   0.00011
           Z            0.00003  -0.00011   1.00000
 This molecule is an asymmetric top.
 Rotational symmetry number  1.
 Warning -- assumption of classical behavior for rotation
           may cause significant error
 Rotational temperatures (Kelvin)      0.05765     0.02644     0.01817
 Rotational constants (GHZ):           1.20121     0.55085     0.37857
    1 imaginary frequencies ignored.
 Zero-point vibrational energy     347995.5 (Joules/Mol)
                                   83.17292 (Kcal/Mol)
 Warning -- explicit consideration of  14 degrees of freedom as
           vibrations may cause significant error
 Vibrational temperatures:    128.97   199.75   225.03   274.20   306.45
          (Kelvin)            405.17   405.39   447.60   504.95   570.04
                              669.33   785.83   812.70   873.19   965.33
                             1048.81  1121.50  1212.83  1312.47  1355.18
                             1397.92  1483.49  1502.20  1541.16  1673.14
                             1687.56  1735.02  1765.12  1849.72  1874.06
                             1958.85  2041.55  2085.77  2143.10  2172.07
                             2175.23  2219.10  2308.47  2375.57  2581.70
                             4172.11  4408.09  4534.24  4543.39  4585.96
                             4631.26  4637.91

 Zero-point correction=                           0.132544 (Hartree/Particle)
 Thermal correction to Energy=                    0.142038
 Thermal correction to Enthalpy=                  0.142982
 Thermal correction to Gibbs Free Energy=         0.096620
 Sum of electronic and zero-point Energies=          -3031.106361
 Sum of electronic and thermal Energies=             -3031.096867
 Sum of electronic and thermal Enthalpies=           -3031.095923
 Sum of electronic and thermal Free Energies=        -3031.142285

                     E (Thermal)             CV                S
                      KCal/Mol        Cal/Mol-Kelvin    Cal/Mol-Kelvin
 Total                   89.130             35.232             97.577
 Electronic               0.000              0.000              0.000
 Translational            0.889              2.981             41.985
 Rotational               0.889              2.981             31.529
 Vibrational             87.353             29.270             24.063
 Vibration     1          0.602              1.957              3.668
 Vibration     2          0.614              1.915              2.820
 Vibration     3          0.620              1.895              2.593
 Vibration     4          0.634              1.853              2.222
 Vibration     5          0.644              1.821              2.018
 Vibration     6          0.681              1.708              1.524
 Vibration     7          0.681              1.707              1.523
 Vibration     8          0.700              1.653              1.356
 Vibration     9          0.728              1.573              1.162
 Vibration    10          0.763              1.478              0.977
 Vibration    11          0.823              1.327              0.751
 Vibration    12          0.901              1.148              0.552
 Vibration    13          0.921              1.107              0.514
 Vibration    14          0.966              1.017              0.438

 Optimization completed.
    -- Stationary point found.
 Normal termination of Gaussian 16 at Tue Sep 17 09:47:02 2024.

 ----------------------------------------------------------------------
 #p M062X/def2tzvp geom=check guess=read scf(xqc,tight) integral(grid=u
 ltrafine) scrf(SMD, solvent=1,4-Dioxane) polar prop=efg volume
 ----------------------------------------------------------------------

 ---
 spe
 ---
 Structure from the checkpoint file:  "smiles_00118_conf_4.chk"
 Charge =  0 Multiplicity = 1

 SCF Done:  E(RM062X) =  -3033.67382323     A.U. after   13 cycles

  Exact polarizability:     196.690      -2.909     152.536       0.003      -0.011      75.287
 Approx polarizability:     195.439      -4.918     177.676       0.005      -0.014      94.904

 Normal termination of Gaussian 16 at Tue Sep 17 10:29:07 2024.
 Gaussian 16:  ES64L-G16RevC.02  7-Dec-2021

 ----------------------------------------------------------------------
 #p M062X/def2tzvp geom=check guess=read scf(xqc,tight) integral(grid=u
 ltrafine) scrf(SMD, solvent=1,4-Dioxane) nmr=giao
 ----------------------------------------------------------------------

 ---
 spe
 ---
 Structure from the checkpoint file:  "smiles_00118_conf_4.chk"
 Charge =  0 Multiplicity = 1

                         Standard orientation:
 ---------------------------------------------------------------------
 Center     Atomic      Atomic             Coordinates (Angstroms)
 Number     Number       Type             X           Y           Z
 ---------------------------------------------------------------------
      1          6           0       -2.890058    1.418646    0.000268
      2          8           0       -1.586432    2.003947   -0.000427
      3          6           0       -0.420181    1.322091   -0.000268
      4          6           0        0.699830    2.180296   -0.000388
      5          6           0        1.991925    1.692639   -0.000253
      6          6           0        2.218975    0.309954    0.000027
      7          6           0        3.588613   -0.233249    0.000191
      8          8           0        3.864984   -1.418670    0.000474
      9          6           0        1.122628   -0.555039    0.000133
     10          6           0       -0.180599   -0.070467   -0.000026
     11         35           0       -1.552801   -1.414474    0.000019
     12          1           0       -3.058460    0.811024    0.891375
     13          1           0       -3.059226    0.810590   -0.890392
     14          1           0       -3.569780    2.271830    0.000353
     15          1           0        0.494379    3.244783   -0.000580
     16          1           0        2.833078    2.380319   -0.000345
     17          1           0        4.388577    0.540083    0.000118
     18          1           0        1.304262   -1.623495    0.000323
 ---------------------------------------------------------------------

 SCF Done:  E(RM062X) =  -3033.67382323     A.U. after    1 cycles

      1  C    Isotropic =   123.8022   Anisotropy =    64.7328

      2  O    Isotropic =   208.2700   Anisotropy =    89.3362

      3  C    Isotropic =     1.9052   Anisotropy =   165.4898

      4  C    Isotropic =    43.0705   Anisotropy =   171.2979

      5  C    Isotropic =    28.7927   Anisotropy =   219.8469

      6  C    Isotropic =    33.7825   Anisotropy =   189.9933

      7  C    Isotropic =   -31.2790   Anisotropy =   177.0479

      8  O    Isotropic =  -400.7675   Anisotropy =  1184.7920

      9  C    Isotropic =    27.0210   Anisotropy =   190.5977

     10  C    Isotropic =    47.0964   Anisotropy =   111.4592

     11  Br   Isotropic =  2113.6473   Anisotropy =  1133.6266

     12  H    Isotropic =    27.1378   Anisotropy =     5.7864

     13  H    Isotropic =    27.1367   Anisotropy =     5.7844

     14  H    Isotropic =    27.8217   Anisotropy =     7.9255

     15  H    Isotropic =    24.0784   Anisotropy =     7.6119

     16  H    Isotropic =    23.4250   Anisotropy =     4.8511

     17  H    Isotropic =    21.1959   Anisotropy =     4.0660

     18  H    Isotropic =    22.9366   Anisotropy =    11.8255

 The electronic state is 1-A.
 Alpha  occ. eigenvalues -- -485.38388 -63.36861 -57.18817 -57.18567 -57.18557
 Alpha  occ. eigenvalues --  -19.67488 -19.62642 -10.64088 -10.63166 -10.61579
 Alpha  occ. eigenvalues --  -10.59353 -10.56921 -10.56655 -10.55873 -10.55757
 Alpha  occ. eigenvalues --   -9.03500  -6.85938  -6.85018  -6.84991  -2.89312
 Alpha  occ. eigenvalues --   -2.88985  -2.88953  -2.88095  -2.88095  -1.20733
 Alpha  occ. eigenvalues --   -1.16842  -0.98897  -0.91336  -0.88473  -0.83487
 Alpha  occ. eigenvalues --   -0.80523  -0.73728  -0.70311  -0.66075  -0.61855
 Alpha  occ. eigenvalues --   -0.59260  -0.56287  -0.56085  -0.52719  -0.52176
 Alpha  occ. eigenvalues --   -0.50505  -0.49057  -0.48975  -0.46732  -0.46094
 Alpha  occ. eigenvalues --   -0.43725  -0.41453  -0.41030  -0.38518  -0.35430
 Alpha  occ. eigenvalues --   -0.33657  -0.31683  -0.29088
 Alpha virt. eigenvalues --   -0.03529   0.00124   0.02465   0.06914   0.08079
 Alpha virt. eigenvalues --    0.09254   0.10895   0.11934   0.12474   0.13515
 Alpha virt. eigenvalues --    0.14325   0.14992   0.16229   0.17235   0.18368

 Mulliken charges:
               1
     1  C   -0.306645
     2  O   -0.271288
     3  C    0.284018
     4  C   -0.202797
     5  C   -0.184170
     6  C    0.059512
     7  C    0.096061
     8  O   -0.323694
     9  C   -0.202509
    10  C   -0.011525
    11  Br  -0.094100
    12  H    0.168366
    13  H    0.168355
    14  H    0.164558
    15  H    0.174815
    16  H    0.174829
    17  H    0.107910
    18  H    0.198306
 Sum of Mulliken charges =  -0.00000

 Dipole moment (field-independent basis, Debye):
    X=             -2.5931    Y=              3.6556    Z=              0.0001  Tot=              4.4819
 Quadrupole moment (field-independent basis, Debye-Ang):
   XX=            -74.7611   YY=            -76.6029   ZZ=            -78.4179
   XY=             10.3104   XZ=             -0.0047   YZ=              0.0018

 Normal termination of Gaussian 16 at Tue Sep 17 10:43:40 2024.
