 Gaussian 16, Revision C.02,

 ----------------------------------------------------------------------
 #p B3LYP/6-31G(d,p) EmpiricalDispersion=GD3BJ opt freq scf(xqc,tight)
 integral(grid=ultrafine)
 ----------------------------------------------------------------------

 ----------------------------------
 opt-freq conformers_unique/conf_aa
 ----------------------------------
 Symbolic Z-matrix:
 Charge =  0 Multiplicity = 1

 SCF Done:  E(RB3LYP) =  -3181.03444364     A.U. after   14 cycles
 SCF Done:  E(RB3LYP) =  -3181.03735193     A.U. after   12 cycles
 SCF Done:  E(RB3LYP) =  -3181.03770926     A.U. after   10 cycles
 SCF Done:  E(RB3LYP) =  -3181.03779349     A.U. after   10 cycles
 SCF Done:  E(RB3LYP) =  -3181.03779953     A.U. after    9 cycles
 Optimization completed.
    -- Stationary point found.
 Normal termination of Gaussian 16 at Tue Sep 17 09:54:00 2024.

 ----------------------------------------------------------------------
 #P Geom=AllCheck Guess=TCheck SCRF=Check GenChk RB3LYP/6-31G(d,p) Freq
 ----------------------------------------------------------------------

 Structure from the checkpoint file:  "smiles_00023_conf_0.chk"
 ----------------------------------
 opt-freq conformers_unique/conf_aa
 ----------------------------------
 Charge =  0 Multiplicity = 1

 SCF Done:  E(RB3LYP) =  -3181.03779953     A.U. after    1 cycles

                      1                      2                      3
                      A                      A                      A
 Frequencies --     19.0769                39.8431                59.9644
 Red. masses --      3.0744                 5.3908                 7.3078
 Frc consts  --      0.0007                 0.0050                 0.0155
 IR Inten    --      0.1085                 4.5497                 0.9459

                      4                      5                      6
                      A                      A                      A
 Frequencies --     87.9641               156.9823               161.5189
 Red. masses --      6.2305                 5.5218                 3.8651
 Frc consts  --      0.0284                 0.0802                 0.0594
 IR Inten    --      0.5305                 0.8146                 0.3076

                      7                      8                      9
                      A                      A                      A
 Frequencies --    181.1976               248.9586               278.7301
 Red. masses --      4.5957                 5.9310                 7.4575
 Frc consts  --      0.0889                 0.2166                 0.3414
 IR Inten    --      0.1556                 1.5272                 1.2396

                     10                     11                     12
                      A                      A                      A
 Frequencies --    280.0034               312.2516               410.5825
 Red. masses --      4.9596                 6.8735                 4.4184
 Frc consts  --      0.2291                 0.3949                 0.4388
 IR Inten    --      0.0011                 0.9733                 0.0533

                     13                     14                     15
                      A                      A                      A
 Frequencies --    422.7122               446.0505               527.7155
 Red. masses --      6.3500                 3.2498                 7.2546
 Frc consts  --      0.6685                 0.3810                 1.1903
 IR Inten    --      3.4230                 1.6867                 0.5025

                     16                     17                     18
                      A                      A                      A
 Frequencies --    554.8610               659.6230               677.1346
 Red. masses --      5.9597                 3.7123                 4.1096
 Frc consts  --      1.0810                 0.9517                 1.1102
 IR Inten    --      1.0374                 0.0809                10.8158

                     19                     20                     21
                      A                      A                      A
 Frequencies --    700.3705               713.0560               750.1863
 Red. masses --      2.9766                 4.7281                 5.3136
 Frc consts  --      0.8602                 1.4164                 1.7619
 IR Inten    --      5.4540                 6.0201                17.3779

                     22                     23                     24
                      A                      A                      A
 Frequencies --    763.4403               803.6268               813.8000
 Red. masses --      7.3896                 1.0862                 1.4877
 Frc consts  --      2.5376                 0.4133                 0.5805
 IR Inten    --     60.6430                 0.2091                20.6333

                     25                     26                     27
                      A                      A                      A
 Frequencies --    825.3547               909.6809               916.6894
 Red. masses --      1.6782                 2.6478                 3.9485
 Frc consts  --      0.6736                 1.2910                 1.9549
 IR Inten    --      6.8195                 0.8992                47.5973

                     28                     29                     30
                      A                      A                      A
 Frequencies --    920.8277               939.6631               986.4816
 Red. masses --      1.4396                 1.3787                11.9242
 Frc consts  --      0.7192                 0.7172                 6.8369
 IR Inten    --      7.4326                 0.4801                 6.2410

                     31                     32                     33
                      A                      A                      A
 Frequencies --    998.7287              1001.7484              1016.3769
 Red. masses --      1.3113                 7.7606                 6.1751
 Frc consts  --      0.7706                 4.5884                 3.7584
 IR Inten    --      0.4472                 4.0888                 8.3004

                     34                     35                     36
                      A                      A                      A
 Frequencies --   1048.2360              1074.5136              1090.9574
 Red. masses --      3.8010                 1.2881                 3.5652
 Frc consts  --      2.4607                 0.8762                 2.5001
 IR Inten    --      1.5638                18.3346                39.0741

                     37                     38                     39
                      A                      A                      A
 Frequencies --   1096.6196              1102.5103              1123.3416
 Red. masses --      1.3258                 1.8511                 1.1063
 Frc consts  --      0.9394                 1.3257                 0.8225
 IR Inten    --      3.6401                13.7296                 2.0131

                     40                     41                     42
                      A                      A                      A
 Frequencies --   1127.4415              1139.2803              1197.6522
 Red. masses --      1.7660                 2.2484                 1.1240
 Frc consts  --      1.3226                 1.7194                 0.9499
 IR Inten    --     12.2201                10.1489                 1.7272

                     43                     44                     45
                      A                      A                      A
 Frequencies --   1213.3159              1219.1277              1232.1222
 Red. masses --      1.3629                 4.2272                 1.9207
 Frc consts  --      1.1821                 3.7017                 1.7179
 IR Inten    --      0.3720                20.0685                55.2246

                     46                     47                     48
                      A                      A                      A
 Frequencies --   1307.0674              1358.6764              1360.1549
 Red. masses --      1.6922                 5.4033                 2.4966
 Frc consts  --      1.7033                 5.8768                 2.7213
 IR Inten    --      4.1444                 0.3772                 5.1492

                     49                     50                     51
                      A                      A                      A
 Frequencies --   1446.4722              1459.5619              1474.4817
 Red. masses --      2.7175                 2.2564                 1.0876
 Frc consts  --      3.3500                 2.8321                 1.3932
 IR Inten    --     11.5153                 8.3393                 2.7387

                     52                     53                     54
                      A                      A                      A
 Frequencies --   1515.9716              1521.1128              1598.0106
 Red. masses --      1.6396                 2.2293                 8.1504
 Frc consts  --      2.2201                 3.0391                12.2627
 IR Inten    --     17.3524                42.2682                79.5022

                     55                     56                     57
                      A                      A                      A
 Frequencies --   1609.7311              1629.8657              1656.6568
 Red. masses --      9.8088                 7.6227                 6.0787
 Frc consts  --     14.9752                11.9306                 9.8294
 IR Inten    --    160.5200                 4.6779                 9.6613

                     58                     59                     60
                      A                      A                      A
 Frequencies --   3152.9211              3154.8982              3200.4865
 Red. masses --      1.0502                 1.0586                 1.0884
 Frc consts  --      6.1512                 6.2078                 6.5688
 IR Inten    --     11.6056                10.2758                 8.9126

                     61                     62                     63
                      A                      A                      A
 Frequencies --   3202.7205              3225.2646              3229.7216
 Red. masses --      1.0904                 1.0923                 1.0957
 Frc consts  --      6.5900                 6.6944                 6.7341
 IR Inten    --      1.5337                 0.5014                 2.5510

                     64                     65                     66
                      A                      A                      A
 Frequencies --   3236.5745              3241.4203              3254.2718
 Red. masses --      1.0920                 1.1209                 1.1171
 Frc consts  --      6.7396                 6.9387                 6.9702
 IR Inten    --      0.2393                 0.6336                 6.3577

 - Thermochemistry -
 -------------------
 Temperature   298.150 Kelvin.  Pressure   1.00000 Atm.
 Atom     1 has atomic number 35 and mass  78.91834

 Molecular mass:   263.98982 amu.
 Principal axes and moments of inertia in atomic units:
                           1         2         3
     Eigenvalues --  1826.384039794.20252**********
           X            0.99921   0.03984  -0.00005
           Y           -0.03984   0.99921   0.00018
           Z            0.00006  -0.00017   1.00000
 This molecule is an asymmetric top.
 Rotational symmetry number  1.
 Warning -- assumption of classical behavior for rotation
           may cause significant error
 Rotational temperatures (Kelvin)      0.04742     0.00884     0.00755
 Rotational constants (GHZ):           0.98815     0.18427     0.15722
 Zero-point vibrational energy     473041.5 (Joules/Mol)
                                  113.05963 (Kcal/Mol)
 Warning -- explicit consideration of  16 degrees of freedom as
           vibrations may cause significant error
 Vibrational temperatures:     27.45    57.33    86.28   126.56   225.86
          (Kelvin)            232.39   260.70   358.20   401.03   402.86
                              449.26   590.74   608.19   641.77   759.26
                              798.32   949.05   974.25  1007.68  1025.93
                             1079.35  1098.42  1156.24  1170.88  1187.50
                             1308.83  1318.91  1324.87  1351.97  1419.33
                             1436.95  1441.29  1462.34  1508.18  1545.99
                             1569.64  1577.79  1586.27  1616.24  1622.14
                             1639.17  1723.15  1745.69  1754.05  1772.75
                             1880.58  1954.83  1956.96  2081.15  2099.98
                             2121.45  2181.14  2188.54  2299.18  2316.04
                             2345.01  2383.56  4536.35  4539.19  4604.79
                             4608.00  4640.44  4646.85  4656.71  4663.68
                             4682.17

 Zero-point correction=                           0.180172 (Hartree/Particle)
 Thermal correction to Energy=                    0.192767
 Thermal correction to Enthalpy=                  0.193711
 Thermal correction to Gibbs Free Energy=         0.137710
 Sum of electronic and zero-point Energies=          -3180.857628
 Sum of electronic and thermal Energies=             -3180.845033
 Sum of electronic and thermal Enthalpies=           -3180.844089
 Sum of electronic and thermal Free Energies=        -3180.900090

                     E (Thermal)             CV                S
                      KCal/Mol        Cal/Mol-Kelvin    Cal/Mol-Kelvin
 Total                  120.963             47.046            117.864
 Electronic               0.000              0.000              0.000
 Translational            0.889              2.981             42.612
 Rotational               0.889              2.981             33.684
 Vibrational            119.186             41.084             41.568
 Vibration     1          0.593              1.986              6.728
 Vibration     2          0.594              1.981              5.267
 Vibration     3          0.597              1.973              4.458
 Vibration     4          0.601              1.958              3.705
 Vibration     5          0.621              1.895              2.586
 Vibration     6          0.622              1.890              2.532
 Vibration     7          0.630              1.865              2.316
 Vibration     8          0.662              1.764              1.738
 Vibration     9          0.679              1.713              1.541
 Vibration    10          0.680              1.711              1.534
 Vibration    11          0.701              1.650              1.350
 Vibration    12          0.775              1.447              0.925
 Vibration    13          0.785              1.421              0.883
 Vibration    14          0.805              1.370              0.808
 Vibration    15          0.883              1.189              0.592
 Vibration    16          0.910              1.129              0.534

 Optimization completed.
    -- Stationary point found.
 Normal termination of Gaussian 16 at Tue Sep 17 09:56:24 2024.

 ----------------------------------------------------------------------
 #p M062X/def2tzvp geom=check guess=read scf(xqc,tight) integral(grid=u
 ltrafine) scrf(SMD, solvent=1,4-Dioxane) polar prop=efg volume
 ----------------------------------------------------------------------

 ---
 spe
 ---
 Structure from the checkpoint file:  "smiles_00023_conf_0.chk"
 Charge =  0 Multiplicity = 1

 SCF Done:  E(RM062X) =  -3183.45875577     A.U. after   12 cycles

  Exact polarizability:     274.241       5.504     195.124       0.011      -0.014     109.123
 Approx polarizability:     257.427      -5.621     224.982       0.012      -0.017     134.180

 Normal termination of Gaussian 16 at Tue Sep 17 10:56:09 2024.
 Gaussian 16:  ES64L-G16RevC.02  7-Dec-2021

 ----------------------------------------------------------------------
 #p M062X/def2tzvp geom=check guess=read scf(xqc,tight) integral(grid=u
 ltrafine) scrf(SMD, solvent=1,4-Dioxane) nmr=giao
 ----------------------------------------------------------------------

 ---
 spe
 ---
 Structure from the checkpoint file:  "smiles_00023_conf_0.chk"
 Charge =  0 Multiplicity = 1

                         Standard orientation:
 ---------------------------------------------------------------------
 Center     Atomic      Atomic             Coordinates (Angstroms)
 Number     Number       Type             X           Y           Z
 ---------------------------------------------------------------------
      1         35           0        3.617124   -1.351567    0.000370
      2          6           0        2.454949    0.164619    0.000112
      3          6           0        3.005075    1.444190    0.000024
      4          6           0        2.146768    2.546089   -0.000163
      5          6           0        0.767605    2.372194   -0.000256
      6          6           0        0.230046    1.075855   -0.000181
      7          6           0       -1.215265    0.905020   -0.000308
      8          7           0       -2.141805    1.816455   -0.000733
      9          7           0       -3.364628    1.145330   -0.000783
     10          6           0       -3.089758   -0.125114   -0.000105
     11          6           0       -4.005699   -1.266187    0.000260
     12          6           0       -5.323932   -1.138317   -0.747452
     13          6           0       -5.324187   -1.137644    0.747407
     14          8           0       -1.744949   -0.360656    0.000196
     15          6           0        1.079769   -0.038704    0.000009
     16          1           0        4.080622    1.573877    0.000100
     17          1           0        2.564779    3.547467   -0.000223
     18          1           0        0.093209    3.220423   -0.000393
     19          1           0       -3.511309   -2.230764    0.000782
     20          1           0       -5.678727   -2.019178   -1.272100
     21          1           0       -5.494074   -0.193969   -1.252776
     22          1           0       -5.679152   -2.018041    1.272719
     23          1           0       -5.494515   -0.192848    1.251829
     24          1           0        0.672228   -1.041375    0.000077
 ---------------------------------------------------------------------

 SCF Done:  E(RM062X) =  -3183.45875577     A.U. after    1 cycles

      1  Br   Isotropic =  2064.4723   Anisotropy =  1325.3757

      2  C    Isotropic =    23.9472   Anisotropy =   145.8364

      3  C    Isotropic =    28.1669   Anisotropy =   191.3841

      4  C    Isotropic =    31.7678   Anisotropy =   213.8210

      5  C    Isotropic =    37.2142   Anisotropy =   216.8870

      6  C    Isotropic =    37.3356   Anisotropy =   192.5859

      7  C    Isotropic =     0.3454   Anisotropy =   104.6487

      8  N    Isotropic =  -119.3937   Anisotropy =   405.2170

      9  N    Isotropic =  -100.1923   Anisotropy =   373.8787

     10  C    Isotropic =    -9.2940   Anisotropy =   123.6031

     11  C    Isotropic =   178.3009   Anisotropy =    78.1059

     12  C    Isotropic =   173.7375   Anisotropy =    48.2294

     13  C    Isotropic =   173.7349   Anisotropy =    48.2397

     14  O    Isotropic =   -20.3933   Anisotropy =   229.4331

     15  C    Isotropic =    35.2907   Anisotropy =   179.4742

     16  H    Isotropic =    23.5562   Anisotropy =    10.3240

     17  H    Isotropic =    23.4832   Anisotropy =     6.1144

     18  H    Isotropic =    22.5243   Anisotropy =     8.1453

     19  H    Isotropic =    29.7803   Anisotropy =    14.0479

     20  H    Isotropic =    30.5944   Anisotropy =    14.9463

     21  H    Isotropic =    30.4156   Anisotropy =    12.5088

     22  H    Isotropic =    30.5944   Anisotropy =    14.9461

     23  H    Isotropic =    30.4156   Anisotropy =    12.5088

     24  H    Isotropic =    23.0045   Anisotropy =    14.1754

 The electronic state is 1-A.
 Alpha  occ. eigenvalues -- -485.38123 -63.36600 -57.18546 -57.18308 -57.18301
 Alpha  occ. eigenvalues --  -19.72395 -14.78552 -14.77948 -10.64992 -10.64906
 Alpha  occ. eigenvalues --  -10.61361 -10.58376 -10.57260 -10.57069 -10.56655
 Alpha  occ. eigenvalues --  -10.56282 -10.56201 -10.55396 -10.55352  -9.03242
 Alpha  occ. eigenvalues --   -6.85654  -6.84771  -6.84750  -2.89030  -2.88711
 Alpha  occ. eigenvalues --   -2.88686  -2.87864  -2.87864  -1.28788  -1.09590
 Alpha  occ. eigenvalues --   -1.00280  -0.98634  -0.94219  -0.90393  -0.86993
 Alpha  occ. eigenvalues --   -0.82772  -0.77862  -0.75394  -0.70514  -0.69738
 Alpha  occ. eigenvalues --   -0.67888  -0.66470  -0.62083  -0.59869  -0.58947
 Alpha  occ. eigenvalues --   -0.57032  -0.55185  -0.54211  -0.53227  -0.50656
 Alpha  occ. eigenvalues --   -0.49119  -0.47792  -0.46730  -0.44182  -0.43965
 Alpha  occ. eigenvalues --   -0.42114  -0.41966  -0.41238  -0.40472  -0.38481
 Alpha  occ. eigenvalues --   -0.37932  -0.36112  -0.35741  -0.34855  -0.31298
 Alpha  occ. eigenvalues --   -0.29091
 Alpha virt. eigenvalues --   -0.03178   0.00008   0.03051   0.04243   0.07865
 Alpha virt. eigenvalues --    0.08493   0.08958   0.10017   0.10264   0.11311
 Alpha virt. eigenvalues --    0.11925   0.12889   0.13400   0.14707   0.15314

 Mulliken charges:
               1
     1  Br  -0.103258
     2  C    0.061385
     3  C   -0.159727
     4  C   -0.145478
     5  C   -0.193961
     6  C    0.045883
     7  C    0.301571
     8  N   -0.201679
     9  N   -0.226655
    10  C    0.306644
    11  C   -0.240818
    12  C   -0.258693
    13  C   -0.258694
    14  O   -0.265181
    15  C   -0.228599
    16  H    0.183846
    17  H    0.173140
    18  H    0.189894
    19  H    0.163455
    20  H    0.158644
    21  H    0.173383
    22  H    0.158643
    23  H    0.173379
    24  H    0.192876
 Sum of Mulliken charges =  -0.00000

 Dipole moment (field-independent basis, Debye):
    X=             -0.0203    Y=             -1.9753    Z=              0.0014  Tot=              1.9754
 Quadrupole moment (field-independent basis, Debye-Ang):
   XX=            -92.0760   YY=            -94.8129   ZZ=           -101.3147
   XY=             21.8913   XZ=             -0.0067   YZ=              0.0024

 Normal termination of Gaussian 16 at Tue Sep 17 11:17:51 2024.
