 Gaussian 16, Revision C.02,

 ----------------------------------------------------------------------
 #p B3LYP/gen pseudo=read EmpiricalDispersion=GD3BJ opt freq scf(xqc,ti
 ght) integral(grid=ultrafine)
 ----------------------------------------------------------------------

 ----------------------------------
 opt-freq conformers_unique/conf_ac
 ----------------------------------
 Symbolic Z-matrix:
 Charge =  0 Multiplicity = 1

 SCF Done:  E(RB3LYP) =  -470.931373596     A.U. after   14 cycles
 SCF Done:  E(RB3LYP) =  -470.932558720     A.U. after   13 cycles
 SCF Done:  E(RB3LYP) =  -470.932845338     A.U. after   13 cycles
 SCF Done:  E(RB3LYP) =  -470.933810177     A.U. after   13 cycles
 SCF Done:  E(RB3LYP) =  -470.933889832     A.U. after   12 cycles
 SCF Done:  E(RB3LYP) =  -470.933894935     A.U. after    9 cycles
 SCF Done:  E(RB3LYP) =  -470.933898598     A.U. after   10 cycles
 SCF Done:  E(RB3LYP) =  -470.933899792     A.U. after   10 cycles
 SCF Done:  E(RB3LYP) =  -470.933900212     A.U. after    9 cycles
 Optimization completed.
    -- Stationary point found.
 Normal termination of Gaussian 16 at Tue Sep 17 09:58:14 2024.

 ------------------------------------------------------------------
 #P Geom=AllCheck Guess=TCheck SCRF=Check GenChk RB3LYP/ChkBas Freq
 ------------------------------------------------------------------

 Structure from the checkpoint file:  "smiles_00115_conf_2.chk"
 ----------------------------------
 opt-freq conformers_unique/conf_ac
 ----------------------------------
 Charge =  0 Multiplicity = 1

 SCF Done:  E(RB3LYP) =  -470.933900212     A.U. after    1 cycles

                      1                      2                      3
                      A                      A                      A
 Frequencies --     31.9705                92.1674               114.3722
 Red. masses --      7.0521                 3.4910                 3.3190
 Frc consts  --      0.0042                 0.0175                 0.0256
 IR Inten    --      1.6778                 0.4850                 0.4634

                      4                      5                      6
                      A                      A                      A
 Frequencies --    134.6718               148.5622               194.8236
 Red. masses --      1.4713                 3.0795                 5.5283
 Frc consts  --      0.0157                 0.0400                 0.1236
 IR Inten    --      0.7837                 2.6970                 1.3550

                      7                      8                      9
                      A                      A                      A
 Frequencies --    236.5845               252.4307               342.4562
 Red. masses --      7.4237                 5.6590                 4.9265
 Frc consts  --      0.2448                 0.2125                 0.3404
 IR Inten    --      0.8924                 1.2939                17.2336

                     10                     11                     12
                      A                      A                      A
 Frequencies --    386.7776               429.2911               469.6946
 Red. masses --      6.6799                 3.9643                 4.4945
 Frc consts  --      0.5888                 0.4304                 0.5842
 IR Inten    --      2.2230                 2.7666                 6.4234

                     13                     14                     15
                      A                      A                      A
 Frequencies --    527.9898               651.7381               699.5309
 Red. masses --      5.1666                 6.6641                 6.0993
 Frc consts  --      0.8486                 1.6678                 1.7585
 IR Inten    --      3.7207                 9.6740                14.0804

                     16                     17                     18
                      A                      A                      A
 Frequencies --    704.5485               756.6805               805.0332
 Red. masses --      5.5049                 1.5750                 2.7667
 Frc consts  --      1.6100                 0.5313                 1.0564
 IR Inten    --     11.2539                46.3685                 3.8252

                     19                     20                     21
                      A                      A                      A
 Frequencies --    839.3520               891.7711               972.1125
 Red. masses --      5.2364                 1.3753                 1.3745
 Frc consts  --      2.1735                 0.6444                 0.7653
 IR Inten    --      6.1359                 0.1857                 1.5455

                     22                     23                     24
                      A                      A                      A
 Frequencies --   1001.9498              1004.0108              1029.5262
 Red. masses --      3.4025                 1.6183                 7.9325
 Frc consts  --      2.0125                 0.9611                 4.9538
 IR Inten    --     18.8897                 7.6416                57.7779

                     25                     26                     27
                      A                      A                      A
 Frequencies --   1079.9793              1135.3540              1167.7688
 Red. masses --      2.4147                 2.3839                 1.9257
 Frc consts  --      1.6594                 1.8105                 1.5472
 IR Inten    --     10.3460                63.7918                59.3960

                     28                     29                     30
                      A                      A                      A
 Frequencies --   1180.3052              1195.6579              1217.4036
 Red. masses --      1.2791                 1.0903                 1.6299
 Frc consts  --      1.0499                 0.9184                 1.4232
 IR Inten    --      1.3359                 1.9746                54.5932

                     31                     32                     33
                      A                      A                      A
 Frequencies --   1290.2813              1297.3458              1345.7604
 Red. masses --      4.9898                 1.4523                 8.2630
 Frc consts  --      4.8944                 1.4402                 8.8171
 IR Inten    --    389.4675                12.3194                53.5464

                     34                     35                     36
                      A                      A                      A
 Frequencies --   1468.4414              1480.5554              1493.8328
 Red. masses --      2.0782                 1.1992                 1.0463
 Frc consts  --      2.6403                 1.5487                 1.3757
 IR Inten    --     22.0370                13.2438                 6.1814

                     37                     38                     39
                      A                      A                      A
 Frequencies --   1507.4081              1510.5685              1618.1796
 Red. masses --      1.7903                 1.2493                 5.6305
 Frc consts  --      2.3969                 1.6796                 8.6867
 IR Inten    --     32.9865                 1.2730                15.7635

                     40                     41                     42
                      A                      A                      A
 Frequencies --   1643.2726              1824.1183              3067.1632
 Red. masses --      5.9217                12.0084                 1.0297
 Frc consts  --      9.4214                23.5419                 5.7075
 IR Inten    --     25.4082               187.3804                35.7911

                     43                     44                     45
                      A                      A                      A
 Frequencies --   3144.0961              3177.2351              3194.0481
 Red. masses --      1.1068                 1.1073                 1.0868
 Frc consts  --      6.4466                 6.5858                 6.5324
 IR Inten    --     18.9018                15.8902                 2.6618

                     46                     47                     48
                      A                      A                      A
 Frequencies --   3209.9813              3223.7876              3238.2691
 Red. masses --      1.0927                 1.0946                 1.0929
 Frc consts  --      6.6336                 6.7026                 6.7522
 IR Inten    --     11.8340                 7.0342                 3.1356

 - Thermochemistry -
 -------------------
 Temperature   298.150 Kelvin.  Pressure   1.00000 Atm.
 Atom     1 has atomic number  6 and mass  12.00000

 Molecular mass:   261.94500 amu.
 Principal axes and moments of inertia in atomic units:
                           1         2         3
     Eigenvalues --  2053.630133305.898605287.75137
           X            0.99297   0.11833   0.00392
           Y           -0.11834   0.99297   0.00156
           Z           -0.00370  -0.00201   0.99999
 This molecule is an asymmetric top.
 Rotational symmetry number  1.
 Warning -- assumption of classical behavior for rotation
           may cause significant error
 Rotational temperatures (Kelvin)      0.04218     0.02620     0.01638
 Rotational constants (GHZ):           0.87881     0.54592     0.34131
 Zero-point vibrational energy     349482.2 (Joules/Mol)
                                   83.52825 (Kcal/Mol)
 Warning -- explicit consideration of  13 degrees of freedom as
           vibrations may cause significant error
 Vibrational temperatures:     46.00   132.61   164.56   193.76   213.75
          (Kelvin)            280.31   340.39   363.19   492.72   556.49
                              617.65   675.79   759.66   937.71  1006.47
                             1013.69  1088.69  1158.26  1207.64  1283.06
                             1398.65  1441.58  1444.55  1481.26  1553.85
                             1633.52  1680.16  1698.20  1720.29  1751.57
                             1856.43  1866.59  1936.25  2112.76  2130.19
                             2149.29  2168.82  2173.37  2328.20  2364.30
                             2624.50  4412.96  4523.65  4571.33  4595.52
                             4618.45  4638.31  4659.15

 Zero-point correction=                           0.133111 (Hartree/Particle)
 Thermal correction to Energy=                    0.143553
 Thermal correction to Enthalpy=                  0.144497
 Thermal correction to Gibbs Free Energy=         0.094458
 Sum of electronic and zero-point Energies=           -470.800789
 Sum of electronic and thermal Energies=              -470.790347
 Sum of electronic and thermal Enthalpies=            -470.789403
 Sum of electronic and thermal Free Energies=         -470.839442

                     E (Thermal)             CV                S
                      KCal/Mol        Cal/Mol-Kelvin    Cal/Mol-Kelvin
 Total                   90.081             36.924            105.316
 Electronic               0.000              0.000              0.000
 Translational            0.889              2.981             42.588
 Rotational               0.889              2.981             31.951
 Vibrational             88.303             30.962             30.776
 Vibration     1          0.594              1.983              5.703
 Vibration     2          0.602              1.955              3.614
 Vibration     3          0.607              1.938              3.193
 Vibration     4          0.613              1.919              2.878
 Vibration     5          0.618              1.904              2.691
 Vibration     6          0.635              1.847              2.181
 Vibration     7          0.655              1.785              1.828
 Vibration     8          0.664              1.759              1.714
 Vibration     9          0.722              1.591              1.201
 Vibration    10          0.755              1.498              1.013
 Vibration    11          0.791              1.406              0.861
 Vibration    12          0.827              1.317              0.738
 Vibration    13          0.883              1.188              0.592

                           ! Non-Optimized Parameters !
 Normal termination of Gaussian 16 at Tue Sep 17 09:58:58 2024.

 ----------------------------------------------------------------------
 #p M062X/def2tzvp geom=check guess=read scf(xqc,tight) integral(grid=u
 ltrafine) scrf(SMD, solvent=1,4-Dioxane) polar prop=efg volume
 ----------------------------------------------------------------------

 ---
 spe
 ---
 Structure from the checkpoint file:  "smiles_00115_conf_2.chk"
 Charge =  0 Multiplicity = 1

 SCF Done:  E(RM062X) =  -757.140071004     A.U. after   24 cycles

  Exact polarizability:     178.281     -11.571     184.276       0.516      -1.158      86.011
 Approx polarizability:     190.691     -17.068     198.702       1.685      -3.635     110.085

 1\1\GINC-HPC-54-28\SP\RM062X\def2TZVP\C8H7I1O2\MANTIND\17-Sep-2024\0\\
 #p M062X/def2tzvp geom=check guess=read scf(xqc,tight) integral(grid=u
 ltrafine) scrf(SMD, solvent=1,4-Dioxane) polar prop=efg volume\\spe\\0
 ,1\C,0,-1.24311287,-3.9587771731,-0.7597704079\O,0,-1.6056197115,-2.57
 41678679,-0.8683848278\C,0,-0.8219654747,-1.7263337386,-0.15780731\O,0
 ,0.1254916639,-2.1015600789,0.4962788326\C,0,-1.3046455086,-0.31636457
 86,-0.2797082394\C,0,-2.6588110097,-0.102655741,-0.595948561\C,0,-3.19
 39476648,1.1771102366,-0.673283233\C,0,-2.3716251728,2.2797270103,-0.4

 Normal termination of Gaussian 16 at Tue Sep 17 10:39:40 2024.
 Gaussian 16:  ES64L-G16RevC.02  7-Dec-2021

 ----------------------------------------------------------------------
 #p M062X/def2tzvp geom=check guess=read scf(xqc,tight) integral(grid=u
 ltrafine) scrf(SMD, solvent=1,4-Dioxane) nmr=giao
 ----------------------------------------------------------------------

 ---
 spe
 ---
 Structure from the checkpoint file:  "smiles_00115_conf_2.chk"
 Charge =  0 Multiplicity = 1

                         Standard orientation:
 ---------------------------------------------------------------------
 Center     Atomic      Atomic             Coordinates (Angstroms)
 Number     Number       Type             X           Y           Z
 ---------------------------------------------------------------------
      1          6           0       -3.566134   -2.073585   -0.200726
      2          8           0       -2.909026   -0.801567   -0.303338
      3          6           0       -1.633867   -0.784321    0.156586
      4          8           0       -1.081479   -1.768598    0.595180
      5          6           0       -1.047326    0.588214    0.067314
      6          6           0       -1.925929    1.687053    0.060112
      7          6           0       -1.455189    2.993907    0.033822
      8          6           0       -0.081292    3.227944    0.000248
      9          6           0        0.809052    2.155919   -0.008860
     10          6           0        0.333459    0.843564    0.030134
     11         53           0        1.839671   -0.679544   -0.050476
     12          1           0       -3.025618   -2.830458   -0.773895
     13          1           0       -3.620184   -2.395986    0.842101
     14          1           0       -4.564729   -1.921263   -0.609265
     15          1           0       -2.990172    1.488911    0.083048
     16          1           0       -2.155623    3.822647    0.037744
     17          1           0        0.304875    4.242411   -0.023130
     18          1           0        1.876275    2.338743   -0.047883
 ---------------------------------------------------------------------

 SCF Done:  E(RM062X) =  -757.140071004     A.U. after    1 cycles

      1  C    Isotropic =   130.5899   Anisotropy =    71.9614

      2  O    Isotropic =   128.2554   Anisotropy =   169.4016

      3  C    Isotropic =    -0.6779   Anisotropy =   106.3983

      4  O    Isotropic =  -156.1710   Anisotropy =   728.9855

      5  C    Isotropic =    28.7823   Anisotropy =   185.7855

      6  C    Isotropic =    28.5170   Anisotropy =   218.0370

      7  C    Isotropic =    35.6224   Anisotropy =   217.0731

      8  C    Isotropic =    28.7391   Anisotropy =   215.2000

      9  C    Isotropic =    22.5123   Anisotropy =   180.4488

     10  C    Isotropic =    22.9482   Anisotropy =   163.6652

     11  I    Isotropic =   430.7969   Anisotropy =    72.3943

     12  H    Isotropic =    27.9186   Anisotropy =     7.9096

     13  H    Isotropic =    27.9966   Anisotropy =     8.3639

     14  H    Isotropic =    28.0516   Anisotropy =     8.0251

     15  H    Isotropic =    22.7951   Anisotropy =    10.0030

     16  H    Isotropic =    23.6028   Anisotropy =     5.8604

     17  H    Isotropic =    23.5387   Anisotropy =     6.3604

     18  H    Isotropic =    23.2798   Anisotropy =    13.5892

 The electronic state is 1-A.
 Alpha  occ. eigenvalues --  -19.67606 -19.62337 -10.68325 -10.60924 -10.58865
 Alpha  occ. eigenvalues --  -10.57925 -10.56336 -10.56249 -10.56164 -10.55677
 Alpha  occ. eigenvalues --   -7.10101  -5.09493  -5.08411  -5.08339  -2.06312
 Alpha  occ. eigenvalues --   -2.05890  -2.05834  -2.04930  -2.04925  -1.23724
 Alpha  occ. eigenvalues --   -1.14501  -0.98401  -0.88466  -0.86994  -0.81874
 Alpha  occ. eigenvalues --   -0.77632  -0.72431  -0.69249  -0.65353  -0.62000
 Alpha  occ. eigenvalues --   -0.57207  -0.56923  -0.56267  -0.53218  -0.52507
 Alpha  occ. eigenvalues --   -0.49132  -0.48146  -0.47701  -0.45159  -0.43703
 Alpha  occ. eigenvalues --   -0.43407  -0.39328  -0.38271  -0.37186  -0.35528
 Alpha  occ. eigenvalues --   -0.32697  -0.30877  -0.29478
 Alpha virt. eigenvalues --   -0.02693  -0.00408   0.00320   0.07782   0.08317
 Alpha virt. eigenvalues --    0.09298   0.10923   0.11699   0.13075   0.13519
 Alpha virt. eigenvalues --    0.15220   0.15793   0.15890   0.16881   0.17450

 Mulliken charges:
               1
     1  C   -0.262678
     2  O   -0.282904
     3  C    0.366313
     4  O   -0.344996
     5  C    0.049703
     6  C   -0.168247
     7  C   -0.158295
     8  C   -0.138792
     9  C   -0.168179
    10  C   -0.005270
    11  I   -0.065447
    12  H    0.161097
    13  H    0.160566
    14  H    0.155188
    15  H    0.179688
    16  H    0.169204
    17  H    0.171717
    18  H    0.181332
 Sum of Mulliken charges =  -0.00000

 Dipole moment (field-independent basis, Debye):
    X=             -2.5820    Y=              2.6113    Z=             -0.5958  Tot=              3.7203
 Quadrupole moment (field-independent basis, Debye-Ang):
   XX=            -71.7492   YY=            -73.5469   ZZ=            -88.3133
   XY=              3.3570   XZ=             -0.0036   YZ=              2.3032

 1\1\GINC-HPC-54-28\SP\RM062X\def2TZVP\C8H7I1O2\MANTIND\17-Sep-2024\0\\
 #p M062X/def2tzvp geom=check guess=read scf(xqc,tight) integral(grid=u
 ltrafine) scrf(SMD, solvent=1,4-Dioxane) nmr=giao\\spe\\0,1\C,0,-1.243
 11287,-3.9587771731,-0.7597704079\O,0,-1.6056197115,-2.5741678679,-0.8
 683848278\C,0,-0.8219654747,-1.7263337386,-0.15780731\O,0,0.1254916639
 ,-2.1015600789,0.4962788326\C,0,-1.3046455086,-0.3163645786,-0.2797082
 394\C,0,-2.6588110097,-0.102655741,-0.595948561\C,0,-3.1939476648,1.17
 71102366,-0.673283233\C,0,-2.3716251728,2.2797270103,-0.4463156799\C,0

 Normal termination of Gaussian 16 at Tue Sep 17 10:50:47 2024.
