 Gaussian 16, Revision C.02,

 ----------------------------------------------------------------------
 #p B3LYP/6-31G(d,p) EmpiricalDispersion=GD3BJ opt freq scf(xqc,tight)
 integral(grid=ultrafine)
 ----------------------------------------------------------------------

 ----------------------------------
 opt-freq conformers_unique/conf_ab
 ----------------------------------
 Symbolic Z-matrix:
 Charge =  0 Multiplicity = 1

 SCF Done:  E(RB3LYP) =  -3181.03410295     A.U. after   14 cycles
 SCF Done:  E(RB3LYP) =  -3181.03700828     A.U. after   12 cycles
 SCF Done:  E(RB3LYP) =  -3181.03736629     A.U. after   10 cycles
 SCF Done:  E(RB3LYP) =  -3181.03745061     A.U. after   10 cycles
 SCF Done:  E(RB3LYP) =  -3181.03745671     A.U. after    9 cycles
 SCF Done:  E(RB3LYP) =  -3181.03745701     A.U. after    7 cycles
 Optimization completed.
    -- Stationary point found.
 Normal termination of Gaussian 16 at Tue Sep 17 09:54:17 2024.

 ----------------------------------------------------------------------
 #P Geom=AllCheck Guess=TCheck SCRF=Check GenChk RB3LYP/6-31G(d,p) Freq
 ----------------------------------------------------------------------

 Structure from the checkpoint file:  "smiles_00023_conf_1.chk"
 ----------------------------------
 opt-freq conformers_unique/conf_ab
 ----------------------------------
 Charge =  0 Multiplicity = 1

 SCF Done:  E(RB3LYP) =  -3181.03745701     A.U. after    1 cycles

                      1                      2                      3
                      A                      A                      A
 Frequencies --     17.7280                31.9001                66.4678
 Red. masses --      3.6915                 4.5521                 6.8904
 Frc consts  --      0.0007                 0.0027                 0.0179
 IR Inten    --      0.8019                 1.6753                 0.3752

                      4                      5                      6
                      A                      A                      A
 Frequencies --     94.9692               155.6026               156.8083
 Red. masses --      6.4418                 3.9922                 7.1726
 Frc consts  --      0.0342                 0.0570                 0.1039
 IR Inten    --      0.7598                 0.1024                 0.6582

                      7                      8                      9
                      A                      A                      A
 Frequencies --    184.0326               205.7485               279.8413
 Red. masses --      4.3539                 4.9818                 4.9259
 Frc consts  --      0.0869                 0.1243                 0.2273
 IR Inten    --      0.0002                 1.2847                 0.0045

                     10                     11                     12
                      A                      A                      A
 Frequencies --    297.2165               342.7206               408.6433
 Red. masses --      6.8558                 7.8156                 4.2690
 Frc consts  --      0.3568                 0.5409                 0.4200
 IR Inten    --      0.6645                 2.0433                 0.0029

                     13                     14                     15
                      A                      A                      A
 Frequencies --    411.5622               450.9770               525.3915
 Red. masses --      6.0277                 3.3609                 7.2428
 Frc consts  --      0.6016                 0.4027                 1.1779
 IR Inten    --      4.5564                 2.2849                 0.9780

                     16                     17                     18
                      A                      A                      A
 Frequencies --    553.6732               663.2869               674.0477
 Red. masses --      5.9767                 3.6179                 4.2135
 Frc consts  --      1.0795                 0.9378                 1.1279
 IR Inten    --      1.0297                 4.1281                 2.2731

                     19                     20                     21
                      A                      A                      A
 Frequencies --    700.1965               713.6905               748.8132
 Red. masses --      2.9104                 4.9365                 5.0242
 Frc consts  --      0.8407                 1.4815                 1.6598
 IR Inten    --      6.0202                 5.4339                18.5461

                     22                     23                     24
                      A                      A                      A
 Frequencies --    762.4207               803.8548               809.3661
 Red. masses --      7.5661                 1.0835                 1.5299
 Frc consts  --      2.5913                 0.4125                 0.5905
 IR Inten    --     68.6088                 0.2405                18.8767

                     25                     26                     27
                      A                      A                      A
 Frequencies --    825.4555               910.1253               916.9921
 Red. masses --      1.6693                 2.6903                 3.9471
 Frc consts  --      0.6702                 1.3130                 1.9555
 IR Inten    --      6.8419                 0.5408                45.6706

                     28                     29                     30
                      A                      A                      A
 Frequencies --    927.4407               939.5330               984.4862
 Red. masses --      1.3652                 1.4297                11.2628
 Frc consts  --      0.6918                 0.7436                 6.4316
 IR Inten    --      0.7871                 7.9550                20.5724

                     31                     32                     33
                      A                      A                      A
 Frequencies --    991.9396              1001.3416              1015.9468
 Red. masses --      1.3086                 7.7283                 6.1769
 Frc consts  --      0.7586                 4.5656                 3.7563
 IR Inten    --      0.1830                 2.3121                 2.1899

                     34                     35                     36
                      A                      A                      A
 Frequencies --   1048.0878              1074.5922              1095.5731
 Red. masses --      3.8038                 1.2805                 3.1653
 Frc consts  --      2.4619                 0.8712                 2.2385
 IR Inten    --     12.4859                13.5418                 9.9842

                     37                     38                     39
                      A                      A                      A
 Frequencies --   1096.8449              1109.0628              1123.3522
 Red. masses --      1.3275                 2.1037                 1.1054
 Frc consts  --      0.9409                 1.5246                 0.8218
 IR Inten    --      3.6266                33.3689                 2.0448

                     40                     41                     42
                      A                      A                      A
 Frequencies --   1124.5744              1135.8325              1199.2987
 Red. masses --      1.5696                 2.5190                 1.1210
 Frc consts  --      1.1696                 1.9147                 0.9500
 IR Inten    --      2.9725                10.5813                 2.5106

                     43                     44                     45
                      A                      A                      A
 Frequencies --   1213.3583              1218.9747              1232.0674
 Red. masses --      1.3627                 4.3264                 1.9034
 Frc consts  --      1.1821                 3.7876                 1.7023
 IR Inten    --      0.3662                21.9276                53.0896

                     46                     47                     48
                      A                      A                      A
 Frequencies --   1314.4526              1340.5038              1359.8794
 Red. masses --      1.5422                 3.6254                 4.0925
 Frc consts  --      1.5699                 3.8384                 4.4590
 IR Inten    --      2.0951                21.1505                 0.3399

                     49                     50                     51
                      A                      A                      A
 Frequencies --   1448.4161              1474.7301              1478.2527
 Red. masses --      2.1720                 1.0876                 2.9050
 Frc consts  --      2.6847                 1.3936                 3.7402
 IR Inten    --      2.5196                 2.7493                40.8485

                     52                     53                     54
                      A                      A                      A
 Frequencies --   1506.3964              1518.2625              1598.5294
 Red. masses --      2.4538                 1.5329                 8.1180
 Frc consts  --      3.2807                 2.0819                12.2219
 IR Inten    --     41.0283                 3.9269                33.0602

                     55                     56                     57
                      A                      A                      A
 Frequencies --   1609.7660              1631.2271              1656.2274
 Red. masses --      9.8768                 7.0895                 6.1835
 Frc consts  --     15.0797                11.1147                 9.9936
 IR Inten    --    204.9449                10.7614                 8.7192

                     58                     59                     60
                      A                      A                      A
 Frequencies --   3152.8345              3154.8306              3199.3127
 Red. masses --      1.0503                 1.0586                 1.0881
 Frc consts  --      6.1511                 6.2077                 6.5621
 IR Inten    --     11.6464                10.6879                 8.0119

                     61                     62                     63
                      A                      A                      A
 Frequencies --   3201.8072              3223.4775              3228.0499
 Red. masses --      1.0904                 1.0917                 1.0960
 Frc consts  --      6.5860                 6.6836                 6.7288
 IR Inten    --      2.1485                 1.0529                 3.8393

                     64                     65                     66
                      A                      A                      A
 Frequencies --   3236.7471              3241.3147              3254.1607
 Red. masses --      1.0925                 1.1208                 1.1171
 Frc consts  --      6.7436                 6.9380                 6.9697
 IR Inten    --      2.2296                 0.6665                 6.7357

 - Thermochemistry -
 -------------------
 Temperature   298.150 Kelvin.  Pressure   1.00000 Atm.
 Atom     1 has atomic number 35 and mass  78.91834

 Molecular mass:   263.98982 amu.
 Principal axes and moments of inertia in atomic units:
                           1         2         3
     Eigenvalues --  1186.13485********************
           X            0.99988   0.01566  -0.00000
           Y           -0.01566   0.99988  -0.00000
           Z            0.00000   0.00000   1.00000
 This molecule is an asymmetric top.
 Rotational symmetry number  1.
 Warning -- assumption of classical behavior for rotation
           may cause significant error
 Rotational temperatures (Kelvin)      0.07302     0.00768     0.00703
 Rotational constants (GHZ):           1.52153     0.16012     0.14654
 Zero-point vibrational energy     472961.7 (Joules/Mol)
                                  113.04055 (Kcal/Mol)
 Warning -- explicit consideration of  16 degrees of freedom as
           vibrations may cause significant error
 Vibrational temperatures:     25.51    45.90    95.63   136.64   223.88
          (Kelvin)            225.61   264.78   296.03   402.63   427.63
                              493.10   587.95   592.15   648.86   755.92
                              796.61   954.32   969.80  1007.43  1026.84
                             1077.38  1096.95  1156.57  1164.50  1187.65
                             1309.47  1319.35  1334.38  1351.78  1416.46
                             1427.18  1440.71  1461.72  1507.96  1546.10
                             1576.29  1578.12  1595.69  1616.25  1618.01
                             1634.21  1725.52  1745.75  1753.83  1772.67
                             1891.20  1928.69  1956.56  2083.95  2121.81
                             2126.88  2167.37  2184.44  2299.93  2316.09
                             2346.97  2382.94  4536.23  4539.10  4603.10
                             4606.69  4637.87  4644.44  4656.96  4663.53
                             4682.01

 Zero-point correction=                           0.180142 (Hartree/Particle)
 Thermal correction to Energy=                    0.192751
 Thermal correction to Enthalpy=                  0.193695
 Thermal correction to Gibbs Free Energy=         0.137608
 Sum of electronic and zero-point Energies=          -3180.857315
 Sum of electronic and thermal Energies=             -3180.844706
 Sum of electronic and thermal Enthalpies=           -3180.843762
 Sum of electronic and thermal Free Energies=        -3180.899849

                     E (Thermal)             CV                S
                      KCal/Mol        Cal/Mol-Kelvin    Cal/Mol-Kelvin
 Total                  120.953             47.048            118.047
 Electronic               0.000              0.000              0.000
 Translational            0.889              2.981             42.612
 Rotational               0.889              2.981             33.465
 Vibrational            119.176             41.086             41.970
 Vibration     1          0.593              1.986              6.874
 Vibration     2          0.594              1.983              5.708
 Vibration     3          0.598              1.970              4.255
 Vibration     4          0.603              1.953              3.555
 Vibration     5          0.620              1.896              2.603
 Vibration     6          0.620              1.895              2.588
 Vibration     7          0.631              1.862              2.287
 Vibration     8          0.640              1.832              2.081
 Vibration     9          0.680              1.711              1.535
 Vibration    10          0.691              1.679              1.433
 Vibration    11          0.722              1.590              1.199
 Vibration    12          0.773              1.451              0.931
 Vibration    13          0.776              1.445              0.921
 Vibration    14          0.810              1.359              0.793
 Vibration    15          0.880              1.194              0.598
 Vibration    16          0.909              1.132              0.537

 Optimization completed.
    -- Stationary point found.
 Normal termination of Gaussian 16 at Tue Sep 17 09:56:36 2024.

 ----------------------------------------------------------------------
 #p M062X/def2tzvp geom=check guess=read scf(xqc,tight) integral(grid=u
 ltrafine) scrf(SMD, solvent=1,4-Dioxane) polar prop=efg volume
 ----------------------------------------------------------------------

 ---
 spe
 ---
 Structure from the checkpoint file:  "smiles_00023_conf_1.chk"
 Charge =  0 Multiplicity = 1

 SCF Done:  E(RM062X) =  -3183.45855383     A.U. after   12 cycles

  Exact polarizability:     286.245       6.031     183.821       0.000       0.000     109.175
 Approx polarizability:     259.717       2.140     222.604       0.000       0.003     134.192

 Normal termination of Gaussian 16 at Tue Sep 17 10:56:29 2024.
 Gaussian 16:  ES64L-G16RevC.02  7-Dec-2021

 ----------------------------------------------------------------------
 #p M062X/def2tzvp geom=check guess=read scf(xqc,tight) integral(grid=u
 ltrafine) scrf(SMD, solvent=1,4-Dioxane) nmr=giao
 ----------------------------------------------------------------------

 ---
 spe
 ---
 Structure from the checkpoint file:  "smiles_00023_conf_1.chk"
 Charge =  0 Multiplicity = 1

                         Standard orientation:
 ---------------------------------------------------------------------
 Center     Atomic      Atomic             Coordinates (Angstroms)
 Number     Number       Type             X           Y           Z
 ---------------------------------------------------------------------
      1         35           0        4.081694   -0.854891    0.000025
      2          6           0        2.549659    0.284537   -0.000001
      3          6           0        2.732748    1.667728   -0.000018
      4          6           0        1.610473    2.495145   -0.000033
      5          6           0        0.327966    1.952589   -0.000031
      6          6           0        0.162116    0.561057   -0.000010
      7          6           0       -1.163658   -0.039859   -0.000024
      8          7           0       -1.485947   -1.298694   -0.000277
      9          7           0       -2.879467   -1.356492   -0.000097
     10          6           0       -3.300698   -0.127083    0.000107
     11          6           0       -4.675232    0.375209    0.000266
     12          6           0       -5.736675   -0.417104    0.747320
     13          6           0       -5.736646   -0.416532   -0.747461
     14          8           0       -2.271235    0.770183    0.000128
     15          6           0        1.283462   -0.283077    0.000004
     16          1           0        3.733183    2.083400   -0.000021
     17          1           0        1.741166    3.572381   -0.000049
     18          1           0       -0.543273    2.596887   -0.000045
     19          1           0       -4.751496    1.456477    0.000663
     20          1           0       -6.496527    0.152066    1.272429
     21          1           0       -5.393665   -1.313796    1.251672
     22          1           0       -6.496469    0.153050   -1.272166
     23          1           0       -5.393620   -1.312836   -1.252491
     24          1           0        1.148118   -1.357266    0.000017
 ---------------------------------------------------------------------

 SCF Done:  E(RM062X) =  -3183.45855383     A.U. after    1 cycles

      1  Br   Isotropic =  2060.3814   Anisotropy =  1324.9203

      2  C    Isotropic =    22.9865   Anisotropy =   147.4789

      3  C    Isotropic =    27.1579   Anisotropy =   188.2920

      4  C    Isotropic =    33.3250   Anisotropy =   215.0393

      5  C    Isotropic =    39.7853   Anisotropy =   211.7438

      6  C    Isotropic =    37.3042   Anisotropy =   192.5108

      7  C    Isotropic =     0.1931   Anisotropy =   104.2048

      8  N    Isotropic =  -118.9853   Anisotropy =   405.2434

      9  N    Isotropic =  -100.2884   Anisotropy =   373.9485

     10  C    Isotropic =    -8.8940   Anisotropy =   124.2068

     11  C    Isotropic =   178.8030   Anisotropy =    77.9152

     12  C    Isotropic =   173.4574   Anisotropy =    49.4648

     13  C    Isotropic =   173.4519   Anisotropy =    49.4743

     14  O    Isotropic =   -20.3802   Anisotropy =   229.7965

     15  C    Isotropic =    33.2142   Anisotropy =   185.3717

     16  H    Isotropic =    23.4538   Anisotropy =    10.4754

     17  H    Isotropic =    23.5940   Anisotropy =     6.2154

     18  H    Isotropic =    23.1468   Anisotropy =     9.0739

     19  H    Isotropic =    29.8244   Anisotropy =    14.0545

     20  H    Isotropic =    30.5770   Anisotropy =    15.0749

     21  H    Isotropic =    30.4054   Anisotropy =    12.4932

     22  H    Isotropic =    30.5769   Anisotropy =    15.0749

     23  H    Isotropic =    30.4060   Anisotropy =    12.4916

     24  H    Isotropic =    22.4030   Anisotropy =    13.0382

 The electronic state is 1-A.
 Alpha  occ. eigenvalues -- -485.37927 -63.36404 -57.18351 -57.18112 -57.18105
 Alpha  occ. eigenvalues --  -19.72392 -14.78519 -14.77932 -10.64980 -10.64886
 Alpha  occ. eigenvalues --  -10.61254 -10.58364 -10.57279 -10.56790 -10.56638
 Alpha  occ. eigenvalues --  -10.56498 -10.56323 -10.55403 -10.55359  -9.03047
 Alpha  occ. eigenvalues --   -6.85460  -6.84577  -6.84553  -2.88837  -2.88518
 Alpha  occ. eigenvalues --   -2.88491  -2.87667  -2.87667  -1.28767  -1.09584
 Alpha  occ. eigenvalues --   -1.00268  -0.98622  -0.94156  -0.90496  -0.86733
 Alpha  occ. eigenvalues --   -0.82873  -0.77825  -0.75381  -0.70174  -0.69748
 Alpha  occ. eigenvalues --   -0.67926  -0.66905  -0.61945  -0.59826  -0.58932
 Alpha  occ. eigenvalues --   -0.56941  -0.55190  -0.54116  -0.53199  -0.50921
 Alpha  occ. eigenvalues --   -0.48998  -0.47756  -0.46702  -0.44189  -0.44043
 Alpha  occ. eigenvalues --   -0.42064  -0.41934  -0.41217  -0.40394  -0.38460
 Alpha  occ. eigenvalues --   -0.37942  -0.36073  -0.35549  -0.34902  -0.31062
 Alpha  occ. eigenvalues --   -0.29172
 Alpha virt. eigenvalues --   -0.03163   0.00029   0.03256   0.04238   0.07800
 Alpha virt. eigenvalues --    0.08530   0.08896   0.09909   0.10368   0.11297
 Alpha virt. eigenvalues --    0.11733   0.12959   0.13629   0.14730   0.15115

 Mulliken charges:
               1
     1  Br  -0.099542
     2  C    0.056829
     3  C   -0.161039
     4  C   -0.143738
     5  C   -0.216959
     6  C    0.043335
     7  C    0.303837
     8  N   -0.198763
     9  N   -0.228892
    10  C    0.309985
    11  C   -0.243152
    12  C   -0.258484
    13  C   -0.258500
    14  O   -0.267709
    15  C   -0.201626
    16  H    0.182951
    17  H    0.171698
    18  H    0.177132
    19  H    0.162396
    20  H    0.158358
    21  H    0.173770
    22  H    0.158357
    23  H    0.173769
    24  H    0.205986
 Sum of Mulliken charges =  -0.00000

 Dipole moment (field-independent basis, Debye):
    X=             -2.4759    Y=              4.9499    Z=              0.0006  Tot=              5.5346
 Quadrupole moment (field-independent basis, Debye-Ang):
   XX=            -80.8030   YY=            -97.0567   ZZ=           -101.3169
   XY=             -4.2010   XZ=             -0.0019   YZ=             -0.0009

 Normal termination of Gaussian 16 at Tue Sep 17 11:18:01 2024.
