 Gaussian 16, Revision C.02,

 ----------------------------------------------------------------------
 #p B3LYP/6-31G(d,p) EmpiricalDispersion=GD3BJ opt freq scf(xqc,tight)
 integral(grid=ultrafine)
 ----------------------------------------------------------------------

 ----------------------------------
 opt-freq conformers_unique/conf_aa
 ----------------------------------
 Symbolic Z-matrix:
 Charge =  0 Multiplicity = 1

 SCF Done:  E(RB3LYP) =  -2797.31982020     A.U. after   14 cycles
 SCF Done:  E(RB3LYP) =  -2797.32101691     A.U. after   12 cycles
 SCF Done:  E(RB3LYP) =  -2797.32112049     A.U. after   10 cycles
 SCF Done:  E(RB3LYP) =  -2797.32113597     A.U. after    9 cycles
 Optimization completed.
    -- Stationary point found.
 Normal termination of Gaussian 16 at Tue Sep 17 09:46:59 2024.

 ----------------------------------------------------------------------
 #P Geom=AllCheck Guess=TCheck SCRF=Check GenChk RB3LYP/6-31G(d,p) Freq
 ----------------------------------------------------------------------

 Structure from the checkpoint file:  "smiles_00027_conf_0.chk"
 ----------------------------------
 opt-freq conformers_unique/conf_aa
 ----------------------------------
 Charge =  0 Multiplicity = 1

 SCF Done:  E(RB3LYP) =  -2797.32113597     A.U. after    1 cycles

                      1                      2                      3
                      A                      A                      A
 Frequencies --    231.3926               249.3017               361.9945
 Red. masses --      8.1001                 5.1946                12.1707
 Frc consts  --      0.2555                 0.1902                 0.9397
 IR Inten    --      0.1030                 0.6786                 1.1204

                      4                      5                      6
                      A                      A                      A
 Frequencies --    510.4863               630.5117               692.5944
 Red. masses --      1.6245                 2.5487                 2.8637
 Frc consts  --      0.2494                 0.5970                 0.8093
 IR Inten    --     65.4176                 1.7590                43.1813

                      7                      8                      9
                      A                      A                      A
 Frequencies --    796.2640               881.3171               941.0428
 Red. masses --      1.3550                 1.3205                 5.7342
 Frc consts  --      0.5062                 0.6043                 2.9919
 IR Inten    --     11.7194                19.1119                41.7356

                     10                     11                     12
                      A                      A                      A
 Frequencies --    967.5641              1054.3935              1157.7016
 Red. masses --      7.1146                 1.7384                 1.6511
 Frc consts  --      3.9243                 1.1387                 1.3039
 IR Inten    --     33.1364                21.0936                13.8105

                     13                     14                     15
                      A                      A                      A
 Frequencies --   1207.8569              1289.3431              1376.8927
 Red. masses --      2.5325                 1.9875                 4.6096
 Frc consts  --      2.1769                 1.9467                 5.1489
 IR Inten    --      9.4377                12.7643                 7.9491

                     16                     17                     18
                      A                      A                      A
 Frequencies --   1417.0168              1489.8807              1580.7177
 Red. masses --      4.7930                 2.4558                 3.4196
 Frc consts  --      5.6703                 3.2118                 5.0342
 IR Inten    --      9.2741                 2.4520                 7.1170

                     19                     20                     21
                      A                      A                      A
 Frequencies --   3273.4817              3292.4633              3680.4467
 Red. masses --      1.0973                 1.0992                 1.0818
 Frc consts  --      6.9279                 7.0206                 8.6340
 IR Inten    --      0.8836                 0.5919                92.9435

 - Thermochemistry -
 -------------------
 Temperature   298.150 Kelvin.  Pressure   1.00000 Atm.
 Atom     1 has atomic number 35 and mass  78.91834

 Molecular mass:   145.94796 amu.
 Principal axes and moments of inertia in atomic units:
                           1         2         3
     Eigenvalues --   190.507111435.461231625.96833
           X            0.99994   0.01114   0.00003
           Y           -0.01114   0.99994   0.00005
           Z           -0.00003  -0.00005   1.00000
 This molecule is an asymmetric top.
 Rotational symmetry number  1.
 Rotational temperatures (Kelvin)      0.45465     0.06034     0.05327
 Rotational constants (GHZ):           9.47335     1.25726     1.10995
 Zero-point vibrational energy     161990.3 (Joules/Mol)
                                   38.71661 (Kcal/Mol)
 Warning -- explicit consideration of   4 degrees of freedom as
           vibrations may cause significant error
 Vibrational temperatures:    332.92   358.69   520.83   734.48   907.17
          (Kelvin)            996.49  1145.65  1268.02  1353.95  1392.11
                             1517.04  1665.67  1737.84  1855.08  1981.04
                             2038.77  2143.61  2274.30  4709.81  4737.12
                             5295.34

 Zero-point correction=                           0.061699 (Hartree/Particle)
 Thermal correction to Energy=                    0.066683
 Thermal correction to Enthalpy=                  0.067627
 Thermal correction to Gibbs Free Energy=         0.031834
 Sum of electronic and zero-point Energies=          -2797.259437
 Sum of electronic and thermal Energies=             -2797.254453
 Sum of electronic and thermal Enthalpies=           -2797.253509
 Sum of electronic and thermal Free Energies=        -2797.289302

                     E (Thermal)             CV                S
                      KCal/Mol        Cal/Mol-Kelvin    Cal/Mol-Kelvin
 Total                   41.844             17.408             75.334
 Electronic               0.000              0.000              0.000
 Translational            0.889              2.981             40.845
 Rotational               0.889              2.981             27.588
 Vibrational             40.067             11.446              6.901
 Vibration     1          0.653              1.793              1.868
 Vibration     2          0.662              1.764              1.736
 Vibration     3          0.736              1.551              1.114
 Vibration     4          0.866              1.227              0.632

 Optimization completed.
    -- Stationary point found.
 Normal termination of Gaussian 16 at Tue Sep 17 09:47:15 2024.

 ----------------------------------------------------------------------
 #p M062X/def2tzvp geom=check guess=read scf(xqc,tight) integral(grid=u
 ltrafine) scrf(SMD, solvent=1,4-Dioxane) polar prop=efg volume
 ----------------------------------------------------------------------

 ---
 spe
 ---
 Structure from the checkpoint file:  "smiles_00027_conf_0.chk"
 Charge =  0 Multiplicity = 1

 SCF Done:  E(RM062X) =  -2799.79222629     A.U. after   12 cycles

  Exact polarizability:      98.718       1.204      74.070      -0.001      -0.001      45.698
 Approx polarizability:     106.852       1.562      87.829      -0.001      -0.002      55.631

 Normal termination of Gaussian 16 at Tue Sep 17 09:50:22 2024.
 Gaussian 16:  ES64L-G16RevC.02  7-Dec-2021

 ----------------------------------------------------------------------
 #p M062X/def2tzvp geom=check guess=read scf(xqc,tight) integral(grid=u
 ltrafine) scrf(SMD, solvent=1,4-Dioxane) nmr=giao
 ----------------------------------------------------------------------

 ---
 spe
 ---
 Structure from the checkpoint file:  "smiles_00027_conf_0.chk"
 Charge =  0 Multiplicity = 1

                         Standard orientation:
 ---------------------------------------------------------------------
 Center     Atomic      Atomic             Coordinates (Angstroms)
 Number     Number       Type             X           Y           Z
 ---------------------------------------------------------------------
      1         35           0        1.566741   -0.006856   -0.000061
      2          6           0       -0.314377    0.003985    0.000010
      3          6           0       -1.168400    1.128463    0.000059
      4          7           0       -2.447278    0.755482   -0.000030
      5          7           0       -2.405823   -0.594079    0.000123
      6          6           0       -1.144790   -1.099033    0.000116
      7          1           0       -0.896440    2.173731    0.000028
      8          1           0       -3.272560   -1.108267    0.000173
      9          1           0       -0.929846   -2.155832    0.000184
 ---------------------------------------------------------------------

 SCF Done:  E(RM062X) =  -2799.79222629     A.U. after    1 cycles

      1  Br   Isotropic =  2356.0394   Anisotropy =   926.5587

      2  C    Isotropic =    60.1268   Anisotropy =    96.0864

      3  C    Isotropic =    23.4126   Anisotropy =   150.1200

      4  N    Isotropic =  -117.8130   Anisotropy =   435.7329

      5  N    Isotropic =    17.8940   Anisotropy =   176.3828

      6  C    Isotropic =    37.5738   Anisotropy =   149.0660

      7  H    Isotropic =    23.6098   Anisotropy =     7.1137

      8  H    Isotropic =    21.5192   Anisotropy =     5.0028

      9  H    Isotropic =    23.6630   Anisotropy =     5.8358

 The electronic state is 1-A.
 Alpha  occ. eigenvalues -- -485.38109 -63.36581 -57.18535 -57.18285 -57.18282
 Alpha  occ. eigenvalues --  -14.83579 -14.78542 -10.59255 -10.59094 -10.57149
 Alpha  occ. eigenvalues --   -9.03237  -6.85679  -6.84746  -6.84736  -2.89058
 Alpha  occ. eigenvalues --   -2.88708  -2.88705  -2.87831  -2.87831  -1.17282
 Alpha  occ. eigenvalues --   -0.93366  -0.92492  -0.84395  -0.70158  -0.67228
 Alpha  occ. eigenvalues --   -0.62977  -0.53385  -0.52512  -0.48793  -0.47481
 Alpha  occ. eigenvalues --   -0.39780  -0.38849  -0.34986  -0.33101  -0.29751
 Alpha virt. eigenvalues --    0.03662   0.04160   0.07826   0.08167   0.11321
 Alpha virt. eigenvalues --    0.12411   0.14539   0.16384   0.17888   0.22515
 Alpha virt. eigenvalues --    0.22997   0.23345   0.26431   0.27624   0.27873

 Mulliken charges:
               1
     1  Br  -0.089029
     2  C   -0.085482
     3  C   -0.073244
     4  N   -0.244867
     5  N   -0.098025
     6  C   -0.071386
     7  H    0.176893
     8  H    0.286321
     9  H    0.198820
 Sum of Mulliken charges =  -0.00000

 Dipole moment (field-independent basis, Debye):
    X=             -1.2910    Y=             -2.5875    Z=              0.0004  Tot=              2.8917
 Quadrupole moment (field-independent basis, Debye-Ang):
   XX=            -44.9653   YY=            -41.4776   ZZ=            -49.7581
   XY=              8.7528   XZ=             -0.0010   YZ=             -0.0005

 Normal termination of Gaussian 16 at Tue Sep 17 09:51:36 2024.
