 Gaussian 16, Revision C.02,

 ----------------------------------------------------------------------
 #p B3LYP/6-31G(d,p) EmpiricalDispersion=GD3BJ opt freq scf(xqc,tight)
 integral(grid=ultrafine)
 ----------------------------------------------------------------------

 ----------------------------------
 opt-freq conformers_unique/conf_ac
 ----------------------------------
 Symbolic Z-matrix:
 Charge =  0 Multiplicity = 1

 SCF Done:  E(RB3LYP) =  -899.904976872     A.U. after   15 cycles
 SCF Done:  E(RB3LYP) =  -899.906654339     A.U. after   11 cycles
 SCF Done:  E(RB3LYP) =  -899.906719165     A.U. after   12 cycles
 SCF Done:  E(RB3LYP) =  -899.906800931     A.U. after   11 cycles
 SCF Done:  E(RB3LYP) =  -899.906806689     A.U. after   11 cycles
 SCF Done:  E(RB3LYP) =  -899.906820369     A.U. after    9 cycles
 SCF Done:  E(RB3LYP) =  -899.906831745     A.U. after   10 cycles
 SCF Done:  E(RB3LYP) =  -899.906834539     A.U. after   10 cycles
 SCF Done:  E(RB3LYP) =  -899.906834743     A.U. after    7 cycles
 Optimization completed.
    -- Stationary point found.
 Normal termination of Gaussian 16 at Tue Sep 17 09:56:11 2024.

 ----------------------------------------------------------------------
 #P Geom=AllCheck Guess=TCheck SCRF=Check GenChk RB3LYP/6-31G(d,p) Freq
 ----------------------------------------------------------------------

 Structure from the checkpoint file:  "smiles_00003_conf_2.chk"
 ----------------------------------
 opt-freq conformers_unique/conf_ac
 ----------------------------------
 Charge =  0 Multiplicity = 1

 SCF Done:  E(RB3LYP) =  -899.906834743     A.U. after    1 cycles

                      1                      2                      3
                      A                      A                      A
 Frequencies --     47.2547                58.2896               101.4507
 Red. masses --      4.0495                 7.6096                 6.5904
 Frc consts  --      0.0053                 0.0152                 0.0400
 IR Inten    --      2.1112                 3.1872                 1.8018

                      4                      5                      6
                      A                      A                      A
 Frequencies --    172.9365               195.9759               269.3462
 Red. masses --      3.5037                 1.1798                 6.6448
 Frc consts  --      0.0617                 0.0267                 0.2840
 IR Inten    --      0.7886                 0.1345                 0.3820

                      7                      8                      9
                      A                      A                      A
 Frequencies --    317.6625               340.3368               387.2779
 Red. masses --     10.9639                 4.7188                 4.4519
 Frc consts  --      0.6518                 0.3220                 0.3934
 IR Inten    --      1.0525                 3.3811                 1.5941

                     10                     11                     12
                      A                      A                      A
 Frequencies --    424.7380               495.1343               499.3510
 Red. masses --      3.1681                 4.1973                 2.9765
 Frc consts  --      0.3367                 0.6063                 0.4373
 IR Inten    --      0.4629                47.0503                 4.8706

                     13                     14                     15
                      A                      A                      A
 Frequencies --    532.2419               549.0341               647.5317
 Red. masses --      1.8644                 3.1999                 3.4449
 Frc consts  --      0.3112                 0.5683                 0.8510
 IR Inten    --     12.6229                15.7743                23.3878

                     16                     17                     18
                      A                      A                      A
 Frequencies --    652.0564               699.5405               729.8804
 Red. masses --      2.1992                 4.9851                 4.6025
 Frc consts  --      0.5509                 1.4373                 1.4446
 IR Inten    --     62.5193                 2.2907                12.2278

                     19                     20                     21
                      A                      A                      A
 Frequencies --    803.8917               828.8869               844.6019
 Red. masses --      3.6790                 1.2548                 1.7186
 Frc consts  --      1.4008                 0.5079                 0.7223
 IR Inten    --     12.3469                 0.2500                37.6012

                     22                     23                     24
                      A                      A                      A
 Frequencies --    929.3407               953.4631               960.0463
 Red. masses --      3.7971                 1.2997                 1.3272
 Frc consts  --      1.9322                 0.6961                 0.7207
 IR Inten    --      5.9971                 0.0943                 0.1675

                     25                     26                     27
                      A                      A                      A
 Frequencies --   1030.1501              1031.6521              1057.6672
 Red. masses --      1.7781                 2.7249                 1.7354
 Frc consts  --      1.1117                 1.7087                 1.1438
 IR Inten    --     42.8520                 2.1829                 9.6461

                     28                     29                     30
                      A                      A                      A
 Frequencies --   1116.8965              1140.0886              1207.0945
 Red. masses --      2.9757                 1.3077                 1.1278
 Frc consts  --      2.1871                 1.0015                 0.9682
 IR Inten    --     59.2153                 5.1430                 6.7106

                     31                     32                     33
                      A                      A                      A
 Frequencies --   1258.8430              1327.1519              1337.4673
 Red. masses --      2.4906                 1.5994                 2.4656
 Frc consts  --      2.3254                 1.6597                 2.5986
 IR Inten    --     19.3330                26.1855               144.6087

                     34                     35                     36
                      A                      A                      A
 Frequencies --   1348.2689              1412.6204              1431.8057
 Red. masses --      4.1339                 1.4299                 2.5211
 Frc consts  --      4.4276                 1.6811                 3.0452
 IR Inten    --    162.2198               103.3128                 8.1074

                     37                     38                     39
                      A                      A                      A
 Frequencies --   1485.4727              1492.6649              1502.5317
 Red. masses --      1.0939                 1.7586                 1.1636
 Frc consts  --      1.4223                 2.3085                 1.5477
 IR Inten    --     24.0157                 7.5366                16.0615

                     40                     41                     42
                      A                      A                      A
 Frequencies --   1542.9789              1632.8955              1658.1434
 Red. masses --      2.6299                 6.5665                 5.9680
 Frc consts  --      3.6890                10.3158                 9.6678
 IR Inten    --    209.4107                 2.4239                16.0303

                     43                     44                     45
                      A                      A                      A
 Frequencies --   1795.7567              3064.4344              3136.4878
 Red. masses --      8.2292                 1.0388                 1.0975
 Frc consts  --     15.6351                 5.7474                 6.3615
 IR Inten    --    472.2665                 2.7538                 7.2410

                     46                     47                     48
                      A                      A                      A
 Frequencies --   3174.0051              3193.4041              3217.3730
 Red. masses --      1.1042                 1.0898                 1.0893
 Frc consts  --      6.5540                 6.5477                 6.6437
 IR Inten    --      8.6378                 7.4445                 2.3436

                     49                     50                     51
                      A                      A                      A
 Frequencies --   3223.4622              3234.6880              3601.4911
 Red. masses --      1.0941                 1.0941                 1.0756
 Frc consts  --      6.6983                 6.7451                 8.2196
 IR Inten    --      2.5755                 3.9535                29.4593

 - Thermochemistry -
 -------------------
 Temperature   298.150 Kelvin.  Pressure   1.00000 Atm.
 Atom     1 has atomic number  6 and mass  12.00000

 Molecular mass:   169.02944 amu.
 Principal axes and moments of inertia in atomic units:
                           1         2         3
     Eigenvalues --   548.913194459.919344860.30310
           X            0.99990   0.01316  -0.00460
           Y           -0.01316   0.99991   0.00117
           Z            0.00461  -0.00111   0.99999
 This molecule is an asymmetric top.
 Rotational symmetry number  1.
 Warning -- assumption of classical behavior for rotation
           may cause significant error
 Rotational temperatures (Kelvin)      0.15779     0.01942     0.01782
 Rotational constants (GHZ):           3.28784     0.40466     0.37132
 Zero-point vibrational energy     383377.8 (Joules/Mol)
                                   91.62950 (Kcal/Mol)
 Warning -- explicit consideration of  14 degrees of freedom as
           vibrations may cause significant error
 Vibrational temperatures:     67.99    83.87   145.96   248.82   281.97
          (Kelvin)            387.53   457.05   489.67   557.21   611.10
                              712.39   718.45   765.78   789.94   931.65
                              938.16  1006.48  1050.14  1156.62  1192.58
                             1215.19  1337.11  1371.82  1381.29  1482.16
                             1484.32  1521.75  1606.97  1640.33  1736.74
                             1811.19  1909.48  1924.32  1939.86  2032.45
                             2060.05  2137.26  2147.61  2161.81  2220.00
                             2349.37  2385.70  2583.69  4409.04  4512.71
                             4566.69  4594.60  4629.08  4637.84  4653.99
                             5181.74

 Zero-point correction=                           0.146021 (Hartree/Particle)
 Thermal correction to Energy=                    0.156168
 Thermal correction to Enthalpy=                  0.157112
 Thermal correction to Gibbs Free Energy=         0.109181
 Sum of electronic and zero-point Energies=           -899.760814
 Sum of electronic and thermal Energies=              -899.750667
 Sum of electronic and thermal Enthalpies=            -899.749723
 Sum of electronic and thermal Free Energies=         -899.797654

                     E (Thermal)             CV                S
                      KCal/Mol        Cal/Mol-Kelvin    Cal/Mol-Kelvin
 Total                   97.997             37.787            100.879
 Electronic               0.000              0.000              0.000
 Translational            0.889              2.981             41.283
 Rotational               0.889              2.981             30.854
 Vibrational             96.219             31.825             28.742
 Vibration     1          0.595              1.979              4.929
 Vibration     2          0.596              1.974              4.514
 Vibration     3          0.604              1.948              3.426
 Vibration     4          0.626              1.876              2.403
 Vibration     5          0.636              1.845              2.171
 Vibration     6          0.674              1.730              1.600
 Vibration     7          0.704              1.640              1.322
 Vibration     8          0.720              1.595              1.211
 Vibration     9          0.756              1.497              1.011
 Vibration    10          0.787              1.416              0.876
 Vibration    11          0.851              1.261              0.670
 Vibration    12          0.855              1.251              0.660
 Vibration    13          0.887              1.179              0.582
 Vibration    14          0.904              1.142              0.546

                           ! Non-Optimized Parameters !
 Normal termination of Gaussian 16 at Tue Sep 17 09:57:22 2024.

 ----------------------------------------------------------------------
 #p M062X/def2tzvp geom=check guess=read scf(xqc,tight) integral(grid=u
 ltrafine) scrf(SMD, solvent=1,4-Dioxane) polar prop=efg volume
 ----------------------------------------------------------------------

 ---
 spe
 ---
 Structure from the checkpoint file:  "smiles_00003_conf_2.chk"
 Charge =  0 Multiplicity = 1

 SCF Done:  E(RM062X) =  -899.854536946     A.U. after   12 cycles

  Exact polarizability:     200.163      -3.250     125.610       4.175       6.363      79.489
 Approx polarizability:     196.937      -6.520     145.648       6.516       9.731      97.161

 Normal termination of Gaussian 16 at Tue Sep 17 10:25:33 2024.
 Gaussian 16:  ES64L-G16RevC.02  7-Dec-2021

 ----------------------------------------------------------------------
 #p M062X/def2tzvp geom=check guess=read scf(xqc,tight) integral(grid=u
 ltrafine) scrf(SMD, solvent=1,4-Dioxane) nmr=giao
 ----------------------------------------------------------------------

 ---
 spe
 ---
 Structure from the checkpoint file:  "smiles_00003_conf_2.chk"
 Charge =  0 Multiplicity = 1

                         Standard orientation:
 ---------------------------------------------------------------------
 Center     Atomic      Atomic             Coordinates (Angstroms)
 Number     Number       Type             X           Y           Z
 ---------------------------------------------------------------------
      1          6           0       -2.906605   -1.390087    0.686347
      2          6           0       -3.125725   -0.035447    0.043844
      3          8           0       -4.242043    0.426167   -0.136574
      4          7           0       -2.016188    0.704683   -0.332337
      5          6           0       -0.638513    0.432430   -0.217226
      6          6           0       -0.093482   -0.819538   -0.531011
      7          6           0        1.275879   -1.044372   -0.412954
      8          6           0        2.112274   -0.004981   -0.013650
      9         17           0        3.840531   -0.283576    0.121157
     10          6           0        1.593646    1.256952    0.271487
     11          6           0        0.222007    1.467011    0.176943
     12          1           0       -1.998453   -1.433750    1.290683
     13          1           0       -3.781023   -1.599300    1.302610
     14          1           0       -2.843593   -2.167335   -0.081967
     15          1           0       -2.275468    1.637132   -0.629816
     16          1           0       -0.733467   -1.615298   -0.890315
     17          1           0        1.693543   -2.015252   -0.652619
     18          1           0        2.254072    2.060037    0.576951
     19          1           0       -0.191860    2.440632    0.421088
 ---------------------------------------------------------------------

 SCF Done:  E(RM062X) =  -899.854536946     A.U. after    1 cycles

      1  C    Isotropic =   162.8814   Anisotropy =    34.2180

      2  C    Isotropic =    -5.1279   Anisotropy =   144.9093

      3  O    Isotropic =  -164.0955   Anisotropy =   677.7383

      4  N    Isotropic =    92.8521   Anisotropy =   131.3101

      5  C    Isotropic =    25.2568   Anisotropy =   183.9429

      6  C    Isotropic =    40.3185   Anisotropy =   192.8330

      7  C    Isotropic =    34.2867   Anisotropy =   186.8627

      8  C    Isotropic =    27.3643   Anisotropy =   139.7744

      9  Cl   Isotropic =   689.2903   Anisotropy =   505.8371

     10  C    Isotropic =    33.6303   Anisotropy =   187.5503

     11  C    Isotropic =    41.7753   Anisotropy =   179.8464

     12  H    Isotropic =    29.6582   Anisotropy =     4.9814

     13  H    Isotropic =    29.9251   Anisotropy =     7.9249

     14  H    Isotropic =    29.6500   Anisotropy =     6.5631

     15  H    Isotropic =    24.6762   Anisotropy =     5.5697

     16  H    Isotropic =    23.9240   Anisotropy =     8.7172

     17  H    Isotropic =    23.6942   Anisotropy =     8.7523

     18  H    Isotropic =    23.7288   Anisotropy =     8.3486

     19  H    Isotropic =    24.2098   Anisotropy =     7.3609

 The electronic state is 1-A.
 Alpha  occ. eigenvalues -- -102.64980 -19.60000 -14.78520 -10.65605 -10.61105
 Alpha  occ. eigenvalues --  -10.60474 -10.56398 -10.56395 -10.56133 -10.56126
 Alpha  occ. eigenvalues --  -10.54179  -9.81224  -7.53422  -7.52910  -7.52900
 Alpha  occ. eigenvalues --   -1.16817  -1.05377  -0.99555  -0.93474  -0.86681
 Alpha  occ. eigenvalues --   -0.84329  -0.82698  -0.72247  -0.70703  -0.66062
 Alpha  occ. eigenvalues --   -0.62450  -0.56737  -0.56330  -0.54773  -0.52751
 Alpha  occ. eigenvalues --   -0.52253  -0.50611  -0.48898  -0.47862  -0.46819
 Alpha  occ. eigenvalues --   -0.45111  -0.44473  -0.42667  -0.41492  -0.38246
 Alpha  occ. eigenvalues --   -0.35934  -0.34204  -0.32922  -0.28387
 Alpha virt. eigenvalues --   -0.00051   0.00138   0.05642   0.06061   0.07602
 Alpha virt. eigenvalues --    0.08860   0.11064   0.11568   0.12440   0.13845
 Alpha virt. eigenvalues --    0.14420   0.16358   0.16682   0.17280   0.17941

 Mulliken charges:
               1
     1  C   -0.534491
     2  C    0.351469
     3  O   -0.394870
     4  N   -0.378687
     5  C    0.281691
     6  C   -0.249643
     7  C   -0.163867
     8  C    0.060946
     9  Cl  -0.098784
    10  C   -0.176354
    11  C   -0.238601
    12  H    0.190382
    13  H    0.174716
    14  H    0.180689
    15  H    0.264128
    16  H    0.193739
    17  H    0.177506
    18  H    0.177255
    19  H    0.182776
 Sum of Mulliken charges =  -0.00000

 Dipole moment (field-independent basis, Debye):
    X=              1.6557    Y=             -0.4745    Z=              0.2890  Tot=              1.7464
 Quadrupole moment (field-independent basis, Debye-Ang):
   XX=            -98.3915   YY=            -61.0744   ZZ=            -72.6693
   XY=              5.6445   XZ=             -1.6481   YZ=              1.3625

 Normal termination of Gaussian 16 at Tue Sep 17 10:35:31 2024.
