 Gaussian 16, Revision C.02,

 ----------------------------------------------------------------------
 #p B3LYP/6-31G(d,p) EmpiricalDispersion=GD3BJ opt freq scf(xqc,tight)
 integral(grid=ultrafine)
 ----------------------------------------------------------------------

 ----------------------------------
 opt-freq conformers_unique/conf_ac
 ----------------------------------
 Symbolic Z-matrix:
 Charge =  0 Multiplicity = 1

 SCF Done:  E(RB3LYP) =  -3109.92008960     A.U. after   14 cycles
 SCF Done:  E(RB3LYP) =  -3109.92170752     A.U. after   12 cycles
 SCF Done:  E(RB3LYP) =  -3109.92103927     A.U. after   13 cycles
 SCF Done:  E(RB3LYP) =  -3109.92197227     A.U. after   11 cycles
 SCF Done:  E(RB3LYP) =  -3109.92199976     A.U. after   11 cycles
 SCF Done:  E(RB3LYP) =  -3109.92201921     A.U. after   11 cycles
 SCF Done:  E(RB3LYP) =  -3109.92202386     A.U. after   10 cycles
 SCF Done:  E(RB3LYP) =  -3109.92202538     A.U. after   10 cycles
 SCF Done:  E(RB3LYP) =  -3109.92202545     A.U. after    7 cycles
 SCF Done:  E(RB3LYP) =  -3109.92202553     A.U. after    7 cycles
 SCF Done:  E(RB3LYP) =  -3109.92202585     A.U. after    9 cycles
 SCF Done:  E(RB3LYP) =  -3109.92202590     A.U. after    7 cycles
 SCF Done:  E(RB3LYP) =  -3109.92202593     A.U. after    7 cycles
 SCF Done:  E(RB3LYP) =  -3109.92202594     A.U. after    6 cycles
 SCF Done:  E(RB3LYP) =  -3109.92202596     A.U. after    6 cycles
 SCF Done:  E(RB3LYP) =  -3109.92202597     A.U. after    6 cycles
 SCF Done:  E(RB3LYP) =  -3109.92202598     A.U. after    6 cycles
 Optimization completed.
    -- Stationary point found.
 Normal termination of Gaussian 16 at Tue Sep 17 09:59:05 2024.

 ----------------------------------------------------------------------
 #P Geom=AllCheck Guess=TCheck SCRF=Check GenChk RB3LYP/6-31G(d,p) Freq
 ----------------------------------------------------------------------

 Structure from the checkpoint file:  "smiles_00069_conf_2.chk"
 ----------------------------------
 opt-freq conformers_unique/conf_ac
 ----------------------------------
 Charge =  0 Multiplicity = 1

 SCF Done:  E(RB3LYP) =  -3109.92202598     A.U. after    1 cycles

                      1                      2                      3
                      A                      A                      A
 Frequencies --     12.9746                18.9043                41.5416
 Red. masses --      3.8485                 3.7358                 6.4825
 Frc consts  --      0.0004                 0.0008                 0.0066
 IR Inten    --      0.1094                 0.4985                 0.3586

                      4                      5                      6
                      A                      A                      A
 Frequencies --     59.4658               103.7397               157.6368
 Red. masses --      3.4572                 3.7145                 3.5804
 Frc consts  --      0.0072                 0.0236                 0.0524
 IR Inten    --      0.5587                 0.5921                 2.5459

                      7                      8                      9
                      A                      A                      A
 Frequencies --    167.0620               221.2340               265.4169
 Red. masses --      4.3101                 4.0399                 1.3241
 Frc consts  --      0.0709                 0.1165                 0.0550
 IR Inten    --      1.5172                 1.7664                 0.2689

                     10                     11                     12
                      A                      A                      A
 Frequencies --    284.7844               325.4479               340.5664
 Red. masses --      7.7197                 5.3270                 5.1097
 Frc consts  --      0.3689                 0.3324                 0.3492
 IR Inten    --      2.6313                 4.4276                 6.6096

                     13                     14                     15
                      A                      A                      A
 Frequencies --    381.3191               420.9503               434.4474
 Red. masses --      3.1304                 2.9707                 2.2094
 Frc consts  --      0.2682                 0.3101                 0.2457
 IR Inten    --      7.5404                 0.0711                 2.1737

                     16                     17                     18
                      A                      A                      A
 Frequencies --    508.9441               575.6147               648.1081
 Red. masses --      3.2037                 5.8832                 6.2387
 Frc consts  --      0.4889                 1.1485                 1.5440
 IR Inten    --      8.8335                 6.2969                 1.6726

                     19                     20                     21
                      A                      A                      A
 Frequencies --    655.8900               716.3751               771.5643
 Red. masses --      4.9713                 4.3238                 3.8858
 Frc consts  --      1.2600                 1.3074                 1.3629
 IR Inten    --      8.7033                 3.8783                21.1283

                     22                     23                     24
                      A                      A                      A
 Frequencies --    813.6532               826.2092               845.1029
 Red. masses --      1.1228                 1.9760                 1.2503
 Frc consts  --      0.4379                 0.7947                 0.5261
 IR Inten    --      0.1231                20.1220                 0.1439

                     25                     26                     27
                      A                      A                      A
 Frequencies --    860.7265               877.5670               957.5100
 Red. masses --      2.3760                 3.2598                 2.9840
 Frc consts  --      1.0371                 1.4791                 1.6119
 IR Inten    --     16.9113                 1.5587                 2.6256

                     28                     29                     30
                      A                      A                      A
 Frequencies --    968.2287               974.2256               977.0158
 Red. masses --      1.9830                 1.3631                 1.5179
 Frc consts  --      1.0953                 0.7622                 0.8537
 IR Inten    --      5.9432                 0.3064                 0.2312

                     31                     32                     33
                      A                      A                      A
 Frequencies --   1031.0277              1065.9107              1096.0610
 Red. masses --      4.8490                 3.2359                 2.6204
 Frc consts  --      3.0370                 2.1661                 1.8547
 IR Inten    --     40.5823                56.1698                28.8047

                     34                     35                     36
                      A                      A                      A
 Frequencies --   1130.2059              1142.9077              1162.9852
 Red. masses --      1.4714                 2.0730                 1.3519
 Frc consts  --      1.1074                 1.5954                 1.0773
 IR Inten    --     17.3826                16.2559               117.6550

                     37                     38                     39
                      A                      A                      A
 Frequencies --   1186.2756              1210.6124              1222.1928
 Red. masses --      1.5493                 1.1289                 2.6808
 Frc consts  --      1.2846                 0.9748                 2.3593
 IR Inten    --      4.1602                 0.2225                15.4753

                     40                     41                     42
                      A                      A                      A
 Frequencies --   1293.2360              1299.1727              1321.4310
 Red. masses --      2.4825                 1.1869                 1.6807
 Frc consts  --      2.4462                 1.1803                 1.7292
 IR Inten    --    266.2519                39.5864                79.3813

                     43                     44                     45
                      A                      A                      A
 Frequencies --   1333.8541              1355.4686              1404.4011
 Red. masses --      1.6123                 2.9796                 1.3310
 Frc consts  --      1.6901                 3.2255                 1.5467
 IR Inten    --      1.5282                 5.0424                 5.5423

                     46                     47                     48
                      A                      A                      A
 Frequencies --   1439.1538              1448.3888              1489.1904
 Red. masses --      1.4054                 2.6881                 1.1036
 Frc consts  --      1.7150                 3.3225                 1.4420
 IR Inten    --      9.0266                 7.8123                 9.0196

                     49                     50                     51
                      A                      A                      A
 Frequencies --   1500.7420              1512.3551              1532.2240
 Red. masses --      1.0394                 1.0501                 1.1232
 Frc consts  --      1.3793                 1.4152                 1.5536
 IR Inten    --      4.9666                 2.3467                 5.8677

                     52                     53                     54
                      A                      A                      A
 Frequencies --   1533.2273              1630.3584              1651.0377
 Red. masses --      2.1695                 6.8878                 5.7704
 Frc consts  --      3.0049                10.7869                 9.2676
 IR Inten    --     57.5243                 0.2828                 5.7306

                     55                     56                     57
                      A                      A                      A
 Frequencies --   1830.0666              3056.9664              3068.4432
 Red. masses --     11.4322                 1.0354                 1.0583
 Frc consts  --     22.5586                 5.7007                 5.8710
 IR Inten    --    238.6283                14.3213                18.5961

                     58                     59                     60
                      A                      A                      A
 Frequencies --   3080.3808              3109.4775              3132.9653
 Red. masses --      1.0611                 1.1077                 1.1020
 Frc consts  --      5.9324                 6.3104                 6.3730
 IR Inten    --     11.7443                 6.4181                23.7921

                     61                     62                     63
                      A                      A                      A
 Frequencies --   3140.1749              3146.4327              3192.1626
 Red. masses --      1.1051                 1.1045                 1.0896
 Frc consts  --      6.4206                 6.4423                 6.5416
 IR Inten    --     36.9024                 5.4690                 6.5988

                     64                     65                     66
                      A                      A                      A
 Frequencies --   3197.9683              3221.7675              3223.1981
 Red. masses --      1.0891                 1.0939                 1.0944
 Frc consts  --      6.5623                 6.6899                 6.6991
 IR Inten    --      6.0006                 4.7039                 0.3240

 - Thermochemistry -
 -------------------
 Temperature   298.150 Kelvin.  Pressure   1.00000 Atm.
 Atom     1 has atomic number  6 and mass  12.00000

 Molecular mass:   241.99424 amu.
 Principal axes and moments of inertia in atomic units:
                           1         2         3
     Eigenvalues --  1443.133328230.383789025.63964
           X            0.99958  -0.02860   0.00430
           Y            0.02858   0.99958   0.00408
           Z           -0.00442  -0.00395   0.99998
 This molecule is an asymmetric top.
 Rotational symmetry number  1.
 Warning -- assumption of classical behavior for rotation
           may cause significant error
 Rotational temperatures (Kelvin)      0.06002     0.01052     0.00960
 Rotational constants (GHZ):           1.25057     0.21928     0.19996
 Zero-point vibrational energy     500066.9 (Joules/Mol)
                                  119.51885 (Kcal/Mol)
 Warning -- explicit consideration of  17 degrees of freedom as
           vibrations may cause significant error
 Vibrational temperatures:     18.67    27.20    59.77    85.56   149.26
          (Kelvin)            226.80   240.36   318.31   381.88   409.74
                              468.25   490.00   548.63   605.65   625.07
                              732.26   828.18   932.48   943.68  1030.70
                             1110.11  1170.67  1188.73  1215.91  1238.39
                             1262.62  1377.64  1393.07  1401.69  1405.71
                             1483.42  1533.61  1576.99  1626.11  1644.39
                             1673.28  1706.79  1741.80  1758.46  1860.68
                             1869.22  1901.24  1919.12  1950.22  2020.62
                             2070.62  2083.91  2142.61  2159.23  2175.94
                             2204.53  2205.97  2345.72  2375.48  2633.06
                             4398.29  4414.81  4431.98  4473.84  4507.64
                             4518.01  4527.01  4592.81  4601.16  4635.40
                             4637.46

 Zero-point correction=                           0.190465 (Hartree/Particle)
 Thermal correction to Energy=                    0.203494
 Thermal correction to Enthalpy=                  0.204438
 Thermal correction to Gibbs Free Energy=         0.146245
 Sum of electronic and zero-point Energies=          -3109.731561
 Sum of electronic and thermal Energies=             -3109.718532
 Sum of electronic and thermal Enthalpies=           -3109.717588
 Sum of electronic and thermal Free Energies=        -3109.775781

                     E (Thermal)             CV                S
                      KCal/Mol        Cal/Mol-Kelvin    Cal/Mol-Kelvin
 Total                  127.694             46.343            122.478
 Electronic               0.000              0.000              0.000
 Translational            0.889              2.981             42.352
 Rotational               0.889              2.981             33.038
 Vibrational            125.917             40.381             47.088
 Vibration     1          0.593              1.987              7.494
 Vibration     2          0.593              1.986              6.746
 Vibration     3          0.594              1.981              5.184
 Vibration     4          0.597              1.974              4.475
 Vibration     5          0.605              1.946              3.383
 Vibration     6          0.621              1.894              2.578
 Vibration     7          0.624              1.883              2.468
 Vibration     8          0.648              1.809              1.949
 Vibration     9          0.671              1.736              1.626
 Vibration    10          0.683              1.702              1.505
 Vibration    11          0.710              1.625              1.283
 Vibration    12          0.720              1.594              1.209
 Vibration    13          0.751              1.510              1.034
 Vibration    14          0.783              1.425              0.889
 Vibration    15          0.795              1.395              0.844
 Vibration    16          0.864              1.230              0.636
 Vibration    17          0.932              1.084              0.494

 Optimization completed.
    -- Stationary point found.
 Normal termination of Gaussian 16 at Tue Sep 17 10:01:27 2024.

 ----------------------------------------------------------------------
 #p M062X/def2tzvp geom=check guess=read scf(xqc,tight) integral(grid=u
 ltrafine) scrf(SMD, solvent=1,4-Dioxane) polar prop=efg volume
 ----------------------------------------------------------------------

 ---
 spe
 ---
 Structure from the checkpoint file:  "smiles_00069_conf_2.chk"
 Charge =  0 Multiplicity = 1

 SCF Done:  E(RM062X) =  -3112.33746193     A.U. after   12 cycles

  Exact polarizability:     204.986      13.508     155.019     -12.079      15.376     123.149
 Approx polarizability:     199.215      16.560     173.903     -14.097      22.337     149.893

 Normal termination of Gaussian 16 at Tue Sep 17 10:49:11 2024.
 Gaussian 16:  ES64L-G16RevC.02  7-Dec-2021

 ----------------------------------------------------------------------
 #p M062X/def2tzvp geom=check guess=read scf(xqc,tight) integral(grid=u
 ltrafine) scrf(SMD, solvent=1,4-Dioxane) nmr=giao
 ----------------------------------------------------------------------

 ---
 spe
 ---
 Structure from the checkpoint file:  "smiles_00069_conf_2.chk"
 Charge =  0 Multiplicity = 1

                         Standard orientation:
 ---------------------------------------------------------------------
 Center     Atomic      Atomic             Coordinates (Angstroms)
 Number     Number       Type             X           Y           Z
 ---------------------------------------------------------------------
      1          6           0       -4.182161    2.513841   -0.130529
      2          6           0       -4.075260    1.098229   -0.658592
      3          8           0       -3.246726    0.355772    0.266477
      4          6           0       -2.973420   -0.918325   -0.083046
      5          8           0       -3.413261   -1.460486   -1.072066
      6          6           0       -2.006532   -1.549649    0.906053
      7          6           0       -0.597502   -1.054979    0.648518
      8          6           0        0.269614   -1.781572   -0.173034
      9          6           0        1.555599   -1.317985   -0.447417
     10          6           0        1.969880   -0.110247    0.106648
     11         35           0        3.731715    0.534382   -0.257332
     12          6           0        1.123831    0.637396    0.922852
     13          6           0       -0.157795    0.159879    1.186152
     14          1           0       -3.194488    2.978488   -0.064155
     15          1           0       -4.637572    2.526454    0.863607
     16          1           0       -4.802297    3.115520   -0.801580
     17          1           0       -3.614588    1.059366   -1.649955
     18          1           0       -5.050640    0.607184   -0.728334
     19          1           0       -2.319634   -1.293061    1.921955
     20          1           0       -2.067495   -2.631286    0.777232
     21          1           0       -0.062747   -2.720078   -0.606530
     22          1           0        2.226141   -1.885632   -1.081610
     23          1           0        1.463860    1.575861    1.344630
     24          1           0       -0.828196    0.741987    1.810436
 ---------------------------------------------------------------------

 SCF Done:  E(RM062X) =  -3112.33746193     A.U. after    1 cycles

      1  C    Isotropic =   172.0478   Anisotropy =    22.2914

      2  C    Isotropic =   119.8035   Anisotropy =    65.6177

      3  O    Isotropic =    96.6170   Anisotropy =   194.4565

      4  C    Isotropic =    -7.0422   Anisotropy =   116.7881

      5  O    Isotropic =  -157.2190   Anisotropy =   668.5349

      6  C    Isotropic =   138.4471   Anisotropy =    21.4718

      7  C    Isotropic =    26.2211   Anisotropy =   221.5806

      8  C    Isotropic =    32.3392   Anisotropy =   195.0268

      9  C    Isotropic =    30.6565   Anisotropy =   183.5598

     10  C    Isotropic =    25.7581   Anisotropy =   141.8606

     11  Br   Isotropic =  2088.6267   Anisotropy =  1291.7747

     12  C    Isotropic =    31.4590   Anisotropy =   185.0840

     13  C    Isotropic =    30.9831   Anisotropy =   199.5514

     14  H    Isotropic =    30.6506   Anisotropy =     7.6285

     15  H    Isotropic =    30.5470   Anisotropy =     8.0128

     16  H    Isotropic =    30.7841   Anisotropy =    10.5650

     17  H    Isotropic =    28.1632   Anisotropy =     5.2544

     18  H    Isotropic =    27.9251   Anisotropy =     6.5882

     19  H    Isotropic =    28.1071   Anisotropy =     4.1872

     20  H    Isotropic =    28.3919   Anisotropy =     5.2473

     21  H    Isotropic =    23.7211   Anisotropy =     8.0874

     22  H    Isotropic =    23.6495   Anisotropy =    10.3152

     23  H    Isotropic =    23.6647   Anisotropy =    10.5795

     24  H    Isotropic =    23.4538   Anisotropy =     8.2005

 The electronic state is 1-A.
 Alpha  occ. eigenvalues -- -485.37550 -63.36031 -57.17975 -57.17740 -57.17735
 Alpha  occ. eigenvalues --  -19.67240 -19.62020 -10.67661 -10.60438 -10.59313
 Alpha  occ. eigenvalues --  -10.56678 -10.55809 -10.55808 -10.55782 -10.55475
 Alpha  occ. eigenvalues --  -10.55452 -10.53079  -9.02676  -6.85080  -6.84210
 Alpha  occ. eigenvalues --   -6.84191  -2.88456  -2.88141  -2.88118  -2.87308
 Alpha  occ. eigenvalues --   -2.87308  -1.23256  -1.14186  -0.98547  -0.91941
 Alpha  occ. eigenvalues --   -0.88063  -0.85743  -0.85146  -0.79127  -0.72607
 Alpha  occ. eigenvalues --   -0.70732  -0.67346  -0.65432  -0.59493  -0.58344
 Alpha  occ. eigenvalues --   -0.56668  -0.55664  -0.54594  -0.53416  -0.50506
 Alpha  occ. eigenvalues --   -0.50107  -0.47603  -0.47246  -0.46423  -0.45881
 Alpha  occ. eigenvalues --   -0.44824  -0.42663  -0.42341  -0.41468  -0.40650
 Alpha  occ. eigenvalues --   -0.38287  -0.37567  -0.35643  -0.35198  -0.32197
 Alpha  occ. eigenvalues --   -0.29455
 Alpha virt. eigenvalues --    0.00165   0.00698   0.03521   0.05278   0.06820
 Alpha virt. eigenvalues --    0.09169   0.09954   0.10612   0.11475   0.12711
 Alpha virt. eigenvalues --    0.13255   0.13858   0.14508   0.15326   0.15801

 Mulliken charges:
               1
     1  C   -0.430803
     2  C   -0.102744
     3  O   -0.273533
     4  C    0.393632
     5  O   -0.357838
     6  C   -0.416980
     7  C    0.108529
     8  C   -0.185608
     9  C   -0.152509
    10  C    0.031332
    11  Br  -0.116173
    12  C   -0.150076
    13  C   -0.197412
    14  H    0.151682
    15  H    0.150129
    16  H    0.151090
    17  H    0.151037
    18  H    0.149747
    19  H    0.199128
    20  H    0.186147
    21  H    0.173866
    22  H    0.181724
    23  H    0.180935
    24  H    0.174697
 Sum of Mulliken charges =  -0.00000

 Dipole moment (field-independent basis, Debye):
    X=             -1.7591    Y=              1.0765    Z=              1.6516  Tot=              2.6422
 Quadrupole moment (field-independent basis, Debye-Ang):
   XX=            -92.2403   YY=            -84.4562   ZZ=            -90.2263
   XY=             -9.3243   XZ=             -5.7071   YZ=             -1.8334

 Normal termination of Gaussian 16 at Tue Sep 17 11:06:49 2024.
