 Gaussian 16, Revision C.02,

 ----------------------------------------------------------------------
 #p B3LYP/6-31G(d,p) EmpiricalDispersion=GD3BJ opt freq scf(xqc,tight)
 integral(grid=ultrafine)
 ----------------------------------------------------------------------

 ----------------------------------
 opt-freq conformers_unique/conf_aa
 ----------------------------------
 Symbolic Z-matrix:
 Charge =  0 Multiplicity = 1

 SCF Done:  E(RB3LYP) =  -2991.91693301     A.U. after   14 cycles
 SCF Done:  E(RB3LYP) =  -2991.91814453     A.U. after   12 cycles
 SCF Done:  E(RB3LYP) =  -2991.91826536     A.U. after    9 cycles
 SCF Done:  E(RB3LYP) =  -2991.91827412     A.U. after    9 cycles
 Optimization completed.
    -- Stationary point found.
 Normal termination of Gaussian 16 at Tue Sep 17 09:56:32 2024.

 ----------------------------------------------------------------------
 #P Geom=AllCheck Guess=TCheck SCRF=Check GenChk RB3LYP/6-31G(d,p) Freq
 ----------------------------------------------------------------------

 Structure from the checkpoint file:  "smiles_00064_conf_0.chk"
 ----------------------------------
 opt-freq conformers_unique/conf_aa
 ----------------------------------
 Charge =  0 Multiplicity = 1

 SCF Done:  E(RB3LYP) =  -2991.91827412     A.U. after    1 cycles
 ******    1 imaginary frequencies (negative Signs) ******

                      1                      2                      3
                      A                      A                      A
 Frequencies --    -49.8313               118.2301               196.6495
 Red. masses --      2.2771                 9.8816                 8.4518
 Frc consts  --      0.0033                 0.0814                 0.1926
 IR Inten    --      7.6157                 0.2344                 0.1191

                      4                      5                      6
                      A                      A                      A
 Frequencies --    231.3755               281.7564               324.6603
 Red. masses --      6.2382                15.1889                 8.4335
 Frc consts  --      0.1968                 0.7104                 0.5237
 IR Inten    --      0.0163                 0.6969                 0.2669

                      7                      8                      9
                      A                      A                      A
 Frequencies --    427.9754               439.2868               585.2521
 Red. masses --      3.0097                 5.0569                 6.8773
 Frc consts  --      0.3248                 0.5749                 1.3879
 IR Inten    --      2.0277                 5.0135                 8.8277

                     10                     11                     12
                      A                      A                      A
 Frequencies --    589.5353               680.1266               710.6260
 Red. masses --      4.5310                 8.3550                 5.5699
 Frc consts  --      0.9278                 2.2771                 1.6572
 IR Inten    --      4.4249                13.1158                 0.0219

                     13                     14                     15
                      A                      A                      A
 Frequencies --    740.9742               817.9367               831.6074
 Red. masses --      8.7362                 1.3593                 6.3735
 Frc consts  --      2.8260                 0.5358                 2.5970
 IR Inten    --      3.1561                29.0063                 7.2476

                     16                     17                     18
                      A                      A                      A
 Frequencies --    873.6913               887.4339               932.8473
 Red. masses --      1.3586                 6.4002                 1.3027
 Frc consts  --      0.6110                 2.9697                 0.6679
 IR Inten    --     18.2792                33.1586                 0.2890

                     19                     20                     21
                      A                      A                      A
 Frequencies --    974.8934              1068.9377              1074.1897
 Red. masses --     10.1036                 1.9785                 5.8213
 Frc consts  --      5.6577                 1.3319                 3.9576
 IR Inten    --     46.0243                12.7366               129.4972

                     22                     23                     24
                      A                      A                      A
 Frequencies --   1133.9594              1143.3281              1180.7002
 Red. masses --      1.7800                 1.4797                 2.2525
 Frc consts  --      1.3485                 1.1397                 1.8501
 IR Inten    --     22.3793                10.3016                17.6999

                     25                     26                     27
                      A                      A                      A
 Frequencies --   1199.9712              1277.7760              1293.1171
 Red. masses --      1.0376                 1.5530                 3.1092
 Frc consts  --      0.8803                 1.4940                 3.0632
 IR Inten    --      0.0007                46.4331               220.8537

                     28                     29                     30
                      A                      A                      A
 Frequencies --   1392.3513              1442.6727              1465.5115
 Red. masses --      5.3755                 1.4703                 3.0350
 Frc consts  --      6.1399                 1.8029                 3.8406
 IR Inten    --      3.5290                 4.5615                10.3985

                     31                     32                     33
                      A                      A                      A
 Frequencies --   1526.7969              1564.8258              1659.9434
 Red. masses --      3.2706                 1.1648                 7.2840
 Frc consts  --      4.4920                 1.6806                11.8252
 IR Inten    --    382.9606                 1.3732                 5.1163

                     34                     35                     36
                      A                      A                      A
 Frequencies --   1673.3986              3036.8602              3087.2153
 Red. masses --      8.6811                 1.0538                 1.1189
 Frc consts  --     14.3227                 5.7261                 6.2833
 IR Inten    --      4.5275               132.2722                47.5513

                     37                     38                     39
                      A                      A                      A
 Frequencies --   3222.1714              3234.5943              3244.8331
 Red. masses --      1.0890                 1.0954                 1.0931
 Frc consts  --      6.6618                 6.7522                 6.7812
 IR Inten    --      1.7887                 1.4607                 0.6405

 - Thermochemistry -
 -------------------
 Temperature   298.150 Kelvin.  Pressure   1.00000 Atm.
 Atom     1 has atomic number 35 and mass  78.91834

 Molecular mass:   199.94729 amu.
 Principal axes and moments of inertia in atomic units:
                           1         2         3
     Eigenvalues --   558.942834009.805424557.01419
           X            0.99995   0.01027   0.00004
           Y           -0.01027   0.99995   0.00002
           Z           -0.00004  -0.00002   1.00000
 This molecule is an asymmetric top.
 Rotational symmetry number  1.
 Warning -- assumption of classical behavior for rotation
           may cause significant error
 Rotational temperatures (Kelvin)      0.15496     0.02160     0.01901
 Rotational constants (GHZ):           3.22885     0.45008     0.39604
    1 imaginary frequencies ignored.
 Zero-point vibrational energy     278538.6 (Joules/Mol)
                                   66.57232 (Kcal/Mol)
 Warning -- explicit consideration of   9 degrees of freedom as
           vibrations may cause significant error
 Vibrational temperatures:    170.11   282.93   332.90   405.38   467.11
          (Kelvin)            615.76   632.04   842.05   848.21   978.55
                             1022.43  1066.10  1176.83  1196.50  1257.05
                             1276.82  1342.16  1402.65  1537.96  1545.52
                             1631.51  1644.99  1698.76  1726.49  1838.43
                             1860.51  2003.28  2075.68  2108.54  2196.72
                             2251.44  2388.29  2407.65  4369.36  4441.81
                             4635.99  4653.86  4668.59

 Zero-point correction=                           0.106090 (Hartree/Particle)
 Thermal correction to Energy=                    0.113290
 Thermal correction to Enthalpy=                  0.114234
 Thermal correction to Gibbs Free Energy=         0.072730
 Sum of electronic and zero-point Energies=          -2991.812184
 Sum of electronic and thermal Energies=             -2991.804984
 Sum of electronic and thermal Enthalpies=           -2991.804040
 Sum of electronic and thermal Free Energies=        -2991.845544

                     E (Thermal)             CV                S
                      KCal/Mol        Cal/Mol-Kelvin    Cal/Mol-Kelvin
 Total                   71.090             27.683             87.353
 Electronic               0.000              0.000              0.000
 Translational            0.889              2.981             41.783
 Rotational               0.889              2.981             30.702
 Vibrational             69.313             21.721             14.867
 Vibration     1          0.608              1.934              3.129
 Vibration     2          0.636              1.845              2.164
 Vibration     3          0.653              1.793              1.868
 Vibration     4          0.681              1.707              1.523
 Vibration     5          0.709              1.626              1.287
 Vibration     6          0.789              1.409              0.865
 Vibration     7          0.799              1.385              0.829
 Vibration     8          0.942              1.063              0.476
 Vibration     9          0.947              1.054              0.468

 Optimization completed.
    -- Stationary point found.
 Normal termination of Gaussian 16 at Tue Sep 17 09:57:19 2024.

 ----------------------------------------------------------------------
 #p M062X/def2tzvp geom=check guess=read scf(xqc,tight) integral(grid=u
 ltrafine) scrf(SMD, solvent=1,4-Dioxane) polar prop=efg volume
 ----------------------------------------------------------------------

 ---
 spe
 ---
 Structure from the checkpoint file:  "smiles_00064_conf_0.chk"
 Charge =  0 Multiplicity = 1

 SCF Done:  E(RM062X) =  -2994.37663060     A.U. after   12 cycles

  Exact polarizability:     173.203       1.626     116.233      -0.004      -0.001      68.652
 Approx polarizability:     174.669      -0.261     141.133      -0.003      -0.001      84.585

 Normal termination of Gaussian 16 at Tue Sep 17 10:18:38 2024.
 Gaussian 16:  ES64L-G16RevC.02  7-Dec-2021

 ----------------------------------------------------------------------
 #p M062X/def2tzvp geom=check guess=read scf(xqc,tight) integral(grid=u
 ltrafine) scrf(SMD, solvent=1,4-Dioxane) nmr=giao
 ----------------------------------------------------------------------

 ---
 spe
 ---
 Structure from the checkpoint file:  "smiles_00064_conf_0.chk"
 Charge =  0 Multiplicity = 1

                         Standard orientation:
 ---------------------------------------------------------------------
 Center     Atomic      Atomic             Coordinates (Angstroms)
 Number     Number       Type             X           Y           Z
 ---------------------------------------------------------------------
      1         35           0        2.699896   -0.215125   -0.000098
      2          6           0        0.824798    0.156304   -0.000030
      3          6           0        0.397765    1.479067   -0.000039
      4          6           0       -0.977221    1.779338    0.000005
      5          6           0       -1.854585    0.715372    0.000057
      6          6           0       -1.408439   -0.605028    0.000066
      7          6           0       -0.067725   -0.929379    0.000022
      8          8           0       -2.481246   -1.458772    0.000126
      9          6           0       -3.651620   -0.628520    0.000138
     10          8           0       -3.227268    0.740723    0.000107
     11          1           0        1.126491    2.279866   -0.000078
     12          1           0       -1.330656    2.803394    0.000002
     13          1           0        0.278168   -1.954338    0.000029
     14          1           0       -4.240056   -0.829048   -0.902669
     15          1           0       -4.240015   -0.829020    0.902977
 ---------------------------------------------------------------------

 SCF Done:  E(RM062X) =  -2994.37663060     A.U. after    1 cycles

      1  Br   Isotropic =  2093.3603   Anisotropy =  1312.5542

      2  C    Isotropic =    35.6893   Anisotropy =   128.7381

      3  C    Isotropic =    39.9819   Anisotropy =   171.1195

      4  C    Isotropic =    57.3496   Anisotropy =   173.9364

      5  C    Isotropic =    17.1889   Anisotropy =   125.8688

      6  C    Isotropic =    15.7532   Anisotropy =   123.6881

      7  C    Isotropic =    54.2849   Anisotropy =   146.9056

      8  O    Isotropic =   198.7062   Anisotropy =   157.1951

      9  C    Isotropic =    76.0578   Anisotropy =    54.5777

     10  O    Isotropic =   201.9494   Anisotropy =   155.5804

     11  H    Isotropic =    24.2543   Anisotropy =     9.4029

     12  H    Isotropic =    24.4252   Anisotropy =     4.7843

     13  H    Isotropic =    24.3366   Anisotropy =     9.1524

     14  H    Isotropic =    25.6827   Anisotropy =     6.5385

     15  H    Isotropic =    25.6827   Anisotropy =     6.5384

 The electronic state is 1-A.
 Alpha  occ. eigenvalues -- -485.37447 -63.35925 -57.17871 -57.17632 -57.17629
 Alpha  occ. eigenvalues --  -19.67912 -19.67798 -10.66267 -10.61710 -10.61378
 Alpha  occ. eigenvalues --  -10.60485 -10.56253 -10.55980 -10.55717  -9.02569
 Alpha  occ. eigenvalues --   -6.84980  -6.84096  -6.84085  -2.88356  -2.88034
 Alpha  occ. eigenvalues --   -2.88018  -2.87194  -2.87194  -1.25879  -1.16581
 Alpha  occ. eigenvalues --   -0.98496  -0.90409  -0.86508  -0.83212  -0.76637
 Alpha  occ. eigenvalues --   -0.72271  -0.70286  -0.61079  -0.60842  -0.60052
 Alpha  occ. eigenvalues --   -0.56765  -0.52609  -0.50935  -0.49458  -0.48192
 Alpha  occ. eigenvalues --   -0.47023  -0.46488  -0.43884  -0.42173  -0.41796
 Alpha  occ. eigenvalues --   -0.35552  -0.35158  -0.31210  -0.26838
 Alpha virt. eigenvalues --    0.01081   0.02371   0.03483   0.08497   0.10152
 Alpha virt. eigenvalues --    0.11052   0.11785   0.12444   0.13944   0.14256
 Alpha virt. eigenvalues --    0.16245   0.18064   0.18411   0.20024   0.21804

 Mulliken charges:
               1
     1  Br  -0.119073
     2  C    0.057470
     3  C   -0.153608
     4  C   -0.238068
     5  C    0.178610
     6  C    0.186396
     7  C   -0.249206
     8  O   -0.295991
     9  C    0.099903
    10  O   -0.296679
    11  H    0.180092
    12  H    0.177666
    13  H    0.192309
    14  H    0.140089
    15  H    0.140090
 Sum of Mulliken charges =  -0.00000

 Dipole moment (field-independent basis, Debye):
    X=             -2.6727    Y=              0.2813    Z=              0.0001  Tot=              2.6874
 Quadrupole moment (field-independent basis, Debye-Ang):
   XX=            -63.1588   YY=            -66.1629   ZZ=            -71.6936
   XY=              2.9789   XZ=             -0.0003   YZ=             -0.0002

 Normal termination of Gaussian 16 at Tue Sep 17 10:26:26 2024.
