 Gaussian 16, Revision C.02,

 ----------------------------------------------------------------------
 #p B3LYP/6-31G(d,p) EmpiricalDispersion=GD3BJ opt freq scf(xqc,tight)
 integral(grid=ultrafine)
 ----------------------------------------------------------------------

 ----------------------------------
 opt-freq conformers_unique/conf_aa
 ----------------------------------
 Symbolic Z-matrix:
 Charge =  0 Multiplicity = 1

 SCF Done:  E(RB3LYP) =  -3464.74211002     A.U. after   15 cycles
 SCF Done:  E(RB3LYP) =  -3464.74473166     A.U. after   12 cycles
 SCF Done:  E(RB3LYP) =  -3464.74497535     A.U. after   11 cycles
 SCF Done:  E(RB3LYP) =  -3464.74499343     A.U. after    9 cycles
 SCF Done:  E(RB3LYP) =  -3464.74499480     A.U. after    8 cycles
 SCF Done:  E(RB3LYP) =  -3464.74499500     A.U. after    7 cycles
 Optimization completed.
    -- Stationary point found.
 Normal termination of Gaussian 16 at Tue Sep 17 09:47:24 2024.

 ----------------------------------------------------------------------
 #P Geom=AllCheck Guess=TCheck SCRF=Check GenChk RB3LYP/6-31G(d,p) Freq
 ----------------------------------------------------------------------

 Structure from the checkpoint file:  "smiles_00090_conf_0.chk"
 ----------------------------------
 opt-freq conformers_unique/conf_aa
 ----------------------------------
 Charge =  0 Multiplicity = 1

 SCF Done:  E(RB3LYP) =  -3464.74499500     A.U. after    1 cycles

                      1                      2                      3
                      A                      A                      A
 Frequencies --     51.3494               148.2656               149.4143
 Red. masses --     15.2431                13.9967                 8.1162
 Frc consts  --      0.0237                 0.1813                 0.1068
 IR Inten    --      0.2515                 0.2799                 2.0034

                      4                      5                      6
                      A                      A                      A
 Frequencies --    182.3668               232.6118               295.6167
 Red. masses --      6.4415                25.0304                10.0431
 Frc consts  --      0.1262                 0.7980                 0.5171
 IR Inten    --      0.2219                 0.2368                 1.2737

                      7                      8                      9
                      A                      A                      A
 Frequencies --    347.4210               423.3818               430.8035
 Red. masses --      9.3184                 4.3998                13.4218
 Frc consts  --      0.6627                 0.4647                 1.4676
 IR Inten    --      0.1920                 1.9134                21.3093

                     10                     11                     12
                      A                      A                      A
 Frequencies --    482.3424               484.2973               545.8397
 Red. masses --      6.1450                 3.6038                 9.9160
 Frc consts  --      0.8423                 0.4980                 1.7407
 IR Inten    --      7.9470                 0.3979                 0.9131

                     13                     14                     15
                      A                      A                      A
 Frequencies --    555.5854               645.6207               709.4201
 Red. masses --      3.3537                10.6583                 9.2881
 Frc consts  --      0.6099                 2.6175                 2.7541
 IR Inten    --      5.4042                 0.0841                 5.8143

                     16                     17                     18
                      A                      A                      A
 Frequencies --    727.9444               815.8852               827.2570
 Red. masses --      9.1559                 7.1864                 8.0557
 Frc consts  --      2.8586                 2.8185                 3.2481
 IR Inten    --      0.3616                 6.3750                14.1367

                     19                     20                     21
                      A                      A                      A
 Frequencies --    919.3235               922.3749               963.4385
 Red. masses --      1.4260                 9.5402                 6.8751
 Frc consts  --      0.7101                 4.7821                 3.7599
 IR Inten    --      5.6726               120.2795                11.1631

                     22                     23                     24
                      A                      A                      A
 Frequencies --    976.7120               980.7194              1101.8216
 Red. masses --      1.4498                 1.4693                 2.3999
 Frc consts  --      0.8149                 0.8326                 1.7166
 IR Inten    --     11.1642                 2.8118                51.7124

                     25                     26                     27
                      A                      A                      A
 Frequencies --   1159.0703              1219.6553              1270.5847
 Red. masses --      5.6087                 3.2854                 2.5080
 Frc consts  --      4.4395                 2.8795                 2.3856
 IR Inten    --    225.3902                 7.3580                55.5808

                     28                     29                     30
                      A                      A                      A
 Frequencies --   1327.7513              1362.8599              1387.7513
 Red. masses --      3.2264                 2.1714                 2.2734
 Frc consts  --      3.3512                 2.3763                 2.5796
 IR Inten    --     81.5236                41.6146                18.3491

                     31                     32                     33
                      A                      A                      A
 Frequencies --   1428.5985              1462.0392              1490.1781
 Red. masses --      5.0136                 4.5448                 3.9762
 Frc consts  --      6.0287                 5.7238                 5.2022
 IR Inten    --     11.0764                89.2220                51.3397

                     34                     35                     36
                      A                      A                      A
 Frequencies --   1577.0680              1630.2249              1647.2279
 Red. masses --      8.7201                 7.1433                 6.9618
 Frc consts  --     12.7784                11.1853                11.1296
 IR Inten    --    104.4129               262.7156                40.2110

                     37                     38                     39
                      A                      A                      A
 Frequencies --   3160.2713              3181.0027              3210.3533
 Red. masses --      1.0918                 1.0917                 1.0930
 Frc consts  --      6.4246                 6.5086                 6.6369
 IR Inten    --     11.9482                 5.5524                 0.8835

 - Thermochemistry -
 -------------------
 Temperature   298.150 Kelvin.  Pressure   1.00000 Atm.
 Atom     1 has atomic number 17 and mass  34.96885

 Molecular mass:   242.91989 amu.
 Principal axes and moments of inertia in atomic units:
                           1         2         3
     Eigenvalues --   651.440868022.583058674.02389
           X            0.99999  -0.00501  -0.00002
           Y            0.00501   0.99999  -0.00004
           Z            0.00003   0.00004   1.00000
 This molecule is an asymmetric top.
 Rotational symmetry number  1.
 Warning -- assumption of classical behavior for rotation
           may cause significant error
 Rotational temperatures (Kelvin)      0.13296     0.01080     0.00999
 Rotational constants (GHZ):           2.77038     0.22496     0.20806
 Zero-point vibrational energy     241851.7 (Joules/Mol)
                                   57.80395 (Kcal/Mol)
 Warning -- explicit consideration of  13 degrees of freedom as
           vibrations may cause significant error
 Vibrational temperatures:     73.88   213.32   214.97   262.39   334.68
          (Kelvin)            425.33   499.86   609.15   619.83   693.98
                              696.80   785.34   799.36   928.90  1020.70
                             1047.35  1173.88  1190.24  1322.70  1327.09
                             1386.17  1405.27  1411.04  1585.28  1667.64
                             1754.81  1828.09  1910.34  1960.85  1996.66
                             2055.43  2103.55  2144.03  2269.05  2345.53
                             2369.99  4546.93  4576.75  4618.98

 Zero-point correction=                           0.092116 (Hartree/Particle)
 Thermal correction to Energy=                    0.101222
 Thermal correction to Enthalpy=                  0.102166
 Thermal correction to Gibbs Free Energy=         0.055652
 Sum of electronic and zero-point Energies=          -3464.652879
 Sum of electronic and thermal Energies=             -3464.643773
 Sum of electronic and thermal Enthalpies=           -3464.642829
 Sum of electronic and thermal Free Energies=        -3464.689343

                     E (Thermal)             CV                S
                      KCal/Mol        Cal/Mol-Kelvin    Cal/Mol-Kelvin
 Total                   63.518             33.899             97.897
 Electronic               0.000              0.000              0.000
 Translational            0.889              2.981             42.364
 Rotational               0.889              2.981             32.183
 Vibrational             61.740             27.937             23.351
 Vibration     1          0.596              1.977              4.765
 Vibration     2          0.618              1.905              2.694
 Vibration     3          0.618              1.903              2.680
 Vibration     4          0.630              1.864              2.304
 Vibration     5          0.653              1.791              1.859
 Vibration     6          0.690              1.682              1.442
 Vibration     7          0.725              1.581              1.178
 Vibration     8          0.786              1.419              0.881
 Vibration     9          0.792              1.403              0.856
 Vibration    10          0.839              1.289              0.704
 Vibration    11          0.840              1.285              0.699
 Vibration    12          0.901              1.149              0.553
 Vibration    13          0.911              1.127              0.533

 Optimization completed.
    -- Stationary point found.
 Normal termination of Gaussian 16 at Tue Sep 17 09:48:24 2024.

 ----------------------------------------------------------------------
 #p M062X/def2tzvp geom=check guess=read scf(xqc,tight) integral(grid=u
 ltrafine) scrf(SMD, solvent=1,4-Dioxane) polar prop=efg volume
 ----------------------------------------------------------------------

 ---
 spe
 ---
 Structure from the checkpoint file:  "smiles_00090_conf_0.chk"
 Charge =  0 Multiplicity = 1

 SCF Done:  E(RM062X) =  -3467.19774326     A.U. after   12 cycles

  Exact polarizability:     262.527      -8.129     139.418       0.004       0.003      75.957
 Approx polarizability:     262.050      -9.500     177.039       0.005       0.003      98.863

 Normal termination of Gaussian 16 at Tue Sep 17 10:25:16 2024.
 Gaussian 16:  ES64L-G16RevC.02  7-Dec-2021

 ----------------------------------------------------------------------
 #p M062X/def2tzvp geom=check guess=read scf(xqc,tight) integral(grid=u
 ltrafine) scrf(SMD, solvent=1,4-Dioxane) nmr=giao
 ----------------------------------------------------------------------

 ---
 spe
 ---
 Structure from the checkpoint file:  "smiles_00090_conf_0.chk"
 Charge =  0 Multiplicity = 1

                         Standard orientation:
 ---------------------------------------------------------------------
 Center     Atomic      Atomic             Coordinates (Angstroms)
 Number     Number       Type             X           Y           Z
 ---------------------------------------------------------------------
      1         17           0       -4.780135   -0.286986    0.000008
      2          6           0       -3.069537    0.071300   -0.000280
      3          7           0       -2.775430    1.395425   -0.000072
      4          6           0       -1.492708    1.687917    0.000023
      5          6           0       -0.481343    0.694984   -0.000013
      6          6           0        0.905938    0.962291    0.000051
      7          6           0        1.756555   -0.114352    0.000030
      8         35           0        3.641440    0.113930    0.000130
      9          6           0        1.224901   -1.433348   -0.000064
     10          7           0       -0.061938   -1.705765   -0.000120
     11          6           0       -0.927870   -0.658247   -0.000087
     12          7           0       -2.255135   -0.949839   -0.000205
     13          1           0       -1.224786    2.743860    0.000105
     14          1           0        1.276637    1.981814    0.000123
     15          1           0        1.911928   -2.276490   -0.000073
 ---------------------------------------------------------------------

 SCF Done:  E(RM062X) =  -3467.19774326     A.U. after    1 cycles

      1  Cl   Isotropic =   537.1479   Anisotropy =   684.8091

      2  C    Isotropic =    -5.3369   Anisotropy =   101.9796

      3  N    Isotropic =  -118.0534   Anisotropy =   530.6216

      4  C    Isotropic =    -5.2177   Anisotropy =   208.6612

      5  C    Isotropic =    46.7118   Anisotropy =   220.2745

      6  C    Isotropic =    22.1165   Anisotropy =   196.1354

      7  C    Isotropic =    29.0676   Anisotropy =   144.5726

      8  Br   Isotropic =  2097.7167   Anisotropy =  1226.6319

      9  C    Isotropic =    -1.2166   Anisotropy =   187.7354

     10  N    Isotropic =  -143.8744   Anisotropy =   577.5819

     11  C    Isotropic =     3.2677   Anisotropy =   208.8584

     12  N    Isotropic =   -91.6376   Anisotropy =   454.5556

     13  H    Isotropic =    21.6449   Anisotropy =     9.2299

     14  H    Isotropic =    22.6151   Anisotropy =    11.5929

     15  H    Isotropic =    21.6688   Anisotropy =    12.1464

 The electronic state is 1-A.
 Alpha  occ. eigenvalues -- -485.39810-102.65573 -63.38281 -57.20233 -57.19987
 Alpha  occ. eigenvalues --  -57.19979 -14.78838 -14.78145 -14.78124 -10.68755
 Alpha  occ. eigenvalues --  -10.64695 -10.63167 -10.62843 -10.62069 -10.60103
 Alpha  occ. eigenvalues --  -10.59488  -9.81862  -9.04927  -7.54054  -7.53557
 Alpha  occ. eigenvalues --   -7.53504  -6.87359  -6.86444  -6.86419  -2.90736
 Alpha  occ. eigenvalues --   -2.90405  -2.90377  -2.89525  -2.89525  -1.14399
 Alpha  occ. eigenvalues --   -1.08733  -1.02583  -0.96832  -0.96265  -0.91445
 Alpha  occ. eigenvalues --   -0.84989  -0.79655  -0.74994  -0.74389  -0.65948
 Alpha  occ. eigenvalues --   -0.63408  -0.60740  -0.56033  -0.55693  -0.55181
 Alpha  occ. eigenvalues --   -0.51694  -0.49852  -0.49723  -0.47763  -0.43711
 Alpha  occ. eigenvalues --   -0.42167  -0.41325  -0.39534  -0.37966  -0.37729
 Alpha  occ. eigenvalues --   -0.36727  -0.36413  -0.34294  -0.31541
 Alpha virt. eigenvalues --   -0.07208  -0.03242   0.00624   0.01899   0.07144
 Alpha virt. eigenvalues --    0.08389   0.08746   0.09637   0.10285   0.12603
 Alpha virt. eigenvalues --    0.14168   0.15424   0.16451   0.18813   0.19605

 Mulliken charges:
               1
     1  Cl  -0.044351
     2  C    0.182323
     3  N   -0.230409
     4  C   -0.041713
     5  C   -0.001937
     6  C   -0.156113
     7  C    0.033910
     8  Br  -0.064730
     9  C   -0.067043
    10  N   -0.215824
    11  C    0.244142
    12  N   -0.209840
    13  H    0.182066
    14  H    0.199665
    15  H    0.189853
 Sum of Mulliken charges =  -0.00000

 Dipole moment (field-independent basis, Debye):
    X=              4.2063    Y=              3.1826    Z=              0.0002  Tot=              5.2747
 Quadrupole moment (field-independent basis, Debye-Ang):
   XX=            -99.0782   YY=            -86.7784   ZZ=            -87.4541
   XY=             -2.6079   XZ=             -0.0004   YZ=             -0.0002

 Normal termination of Gaussian 16 at Tue Sep 17 10:39:23 2024.
