 Gaussian 16, Revision C.02,

 ----------------------------------------------------------------------
 #p B3LYP/gen pseudo=read EmpiricalDispersion=GD3BJ opt freq scf(xqc,ti
 ght) integral(grid=ultrafine)
 ----------------------------------------------------------------------

 ----------------------------------
 opt-freq conformers_unique/conf_aa
 ----------------------------------
 Symbolic Z-matrix:
 Charge =  0 Multiplicity = 1

 SCF Done:  E(RB3LYP) =  -739.170201459     A.U. after   14 cycles
 SCF Done:  E(RB3LYP) =  -739.170751939     A.U. after   12 cycles
 SCF Done:  E(RB3LYP) =  -739.170777059     A.U. after    9 cycles
 Optimization completed.
    -- Stationary point found.
 Normal termination of Gaussian 16 at Tue Sep 17 09:48:05 2024.

 ------------------------------------------------------------------
 #P Geom=AllCheck Guess=TCheck SCRF=Check GenChk RB3LYP/ChkBas Freq
 ------------------------------------------------------------------

 Structure from the checkpoint file:  "smiles_00110_conf_0.chk"
 ----------------------------------
 opt-freq conformers_unique/conf_aa
 ----------------------------------
 Charge =  0 Multiplicity = 1

 SCF Done:  E(RB3LYP) =  -739.170777059     A.U. after    1 cycles

                      1                      2                      3
                      A                      A                      A
 Frequencies --     81.2173               132.5643               134.4354
 Red. masses --     18.9553                18.4990                21.0117
 Frc consts  --      0.0737                 0.1915                 0.2237
 IR Inten    --      0.0285                 0.0000                 0.0837

                      4                      5                      6
                      A                      A                      A
 Frequencies --    166.7496               202.8564               212.8294
 Red. masses --     18.1339                30.8680                14.5079
 Frc consts  --      0.2971                 0.7484                 0.3872
 IR Inten    --      0.0294                 0.4470                 2.1733

                      7                      8                      9
                      A                      A                      A
 Frequencies --    265.9736               273.9575               307.4072
 Red. masses --     18.7972                18.7108                18.1676
 Frc consts  --      0.7835                 0.8274                 1.0115
 IR Inten    --      0.0340                 0.1049                 0.7252

                     10                     11                     12
                      A                      A                      A
 Frequencies --    355.6116               355.6399               392.9057
 Red. masses --     17.4687                12.6953                12.6524
 Frc consts  --      1.3016                 0.9460                 1.1508
 IR Inten    --      0.5792                 2.8344                 0.0000

                     13                     14                     15
                      A                      A                      A
 Frequencies --    445.0057               494.9596               586.5150
 Red. masses --     15.9956                16.1427                17.2559
 Frc consts  --      1.8663                 2.3301                 3.4974
 IR Inten    --      0.0017                 1.3295                 0.1740

                     16                     17                     18
                      A                      A                      A
 Frequencies --    619.9234               649.5497               659.5122
 Red. masses --     12.1806                12.2090                12.0729
 Frc consts  --      2.7580                 3.0350                 3.0939
 IR Inten    --      1.3993                 0.0000                 6.3123

                     19                     20                     21
                      A                      A                      A
 Frequencies --    753.1270               801.7625              1010.1053
 Red. masses --     12.7130                13.5934                14.2258
 Frc consts  --      4.2485                 5.1484                 8.5519
 IR Inten    --      0.0421                89.1114               173.9439

                     22                     23                     24
                      A                      A                      A
 Frequencies --   1115.6402              1192.5092              1323.4684
 Red. masses --     13.5958                13.6725                12.8284
 Frc consts  --      9.9702                11.4557                13.2388
 IR Inten    --     71.1126                 0.6366                 1.1052

                     25                     26                     27
                      A                      A                      A
 Frequencies --   1329.7107              1457.7532              1543.7794
 Red. masses --     12.0044                12.5881                12.3767
 Frc consts  --     12.5057                15.7608                17.3790
 IR Inten    --      1.0836                 0.0046               431.6278

                     28                     29                     30
                      A                      A                      A
 Frequencies --   1554.3234              1669.5344              1670.7848
 Red. masses --     12.5217                12.0532                12.0556
 Frc consts  --     17.8236                19.7945                19.8281
 IR Inten    --    233.1701                 5.0176                 0.3961

 - Thermochemistry -
 -------------------
 Temperature   298.150 Kelvin.  Pressure   1.00000 Atm.
 Atom     1 has atomic number  9 and mass  18.99840

 Molecular mass:   293.89242 amu.
 Principal axes and moments of inertia in atomic units:
                           1         2         3
     Eigenvalues --  1770.842004967.590126738.43211
           X            1.00000  -0.00000   0.00001
           Y            0.00000   1.00000  -0.00000
           Z           -0.00001   0.00000   1.00000
 This molecule is an asymmetric top.
 Rotational symmetry number  1.
 Warning -- assumption of classical behavior for rotation
           may cause significant error
 Rotational temperatures (Kelvin)      0.04891     0.01744     0.01285
 Rotational constants (GHZ):           1.01914     0.36330     0.26783
 Zero-point vibrational energy     130154.4 (Joules/Mol)
                                   31.10764 (Kcal/Mol)
 Warning -- explicit consideration of  16 degrees of freedom as
           vibrations may cause significant error
 Vibrational temperatures:    116.85   190.73   193.42   239.92   291.87
          (Kelvin)            306.21   382.68   394.16   442.29   511.65
                              511.69   565.30   640.26   712.14   843.86
                              891.93   934.56   948.89  1083.58  1153.56
                             1453.32  1605.16  1715.75  1904.18  1913.16
                             2097.38  2221.15  2236.32  2402.09  2403.89

 Zero-point correction=                           0.049573 (Hartree/Particle)
 Thermal correction to Energy=                    0.059953
 Thermal correction to Enthalpy=                  0.060897
 Thermal correction to Gibbs Free Energy=         0.011810
 Sum of electronic and zero-point Energies=           -739.121204
 Sum of electronic and thermal Energies=              -739.110824
 Sum of electronic and thermal Enthalpies=            -739.109880
 Sum of electronic and thermal Free Energies=         -739.158967

                     E (Thermal)             CV                S
                      KCal/Mol        Cal/Mol-Kelvin    Cal/Mol-Kelvin
 Total                   37.621             36.342            103.312
 Electronic               0.000              0.000              0.000
 Translational            0.889              2.981             42.931
 Rotational               0.889              2.981             32.450
 Vibrational             35.844             30.380             27.931
 Vibration     1          0.600              1.962              3.861
 Vibration     2          0.613              1.921              2.908
 Vibration     3          0.613              1.919              2.882
 Vibration     4          0.624              1.883              2.472
 Vibration     5          0.639              1.836              2.107
 Vibration     6          0.644              1.821              2.019
 Vibration     7          0.672              1.735              1.622
 Vibration     8          0.676              1.721              1.571
 Vibration     9          0.697              1.660              1.376
 Vibration    10          0.731              1.564              1.141
 Vibration    11          0.731              1.564              1.141
 Vibration    12          0.760              1.485              0.989
 Vibration    13          0.804              1.372              0.811
 Vibration    14          0.851              1.261              0.671
 Vibration    15          0.944              1.061              0.473
 Vibration    16          0.980              0.990              0.417

 Optimization completed.
    -- Stationary point found.
 Normal termination of Gaussian 16 at Tue Sep 17 09:48:36 2024.

 ----------------------------------------------------------------------
 #p M062X/def2tzvp geom=check guess=read scf(xqc,tight) integral(grid=u
 ltrafine) scrf(SMD, solvent=1,4-Dioxane) polar prop=efg volume
 ----------------------------------------------------------------------

 ---
 spe
 ---
 Structure from the checkpoint file:  "smiles_00110_conf_0.chk"
 Charge =  0 Multiplicity = 1

 SCF Done:  E(RM062X) =  -1025.48094626     A.U. after   22 cycles

  Exact polarizability:     161.352       0.000     112.451      -0.001       0.000      62.799
 Approx polarizability:     170.854       0.000     139.192      -0.001       0.000      80.835

 Normal termination of Gaussian 16 at Tue Sep 17 10:19:29 2024.
 Gaussian 16:  ES64L-G16RevC.02  7-Dec-2021

 ----------------------------------------------------------------------
 #p M062X/def2tzvp geom=check guess=read scf(xqc,tight) integral(grid=u
 ltrafine) scrf(SMD, solvent=1,4-Dioxane) nmr=giao
 ----------------------------------------------------------------------

 ---
 spe
 ---
 Structure from the checkpoint file:  "smiles_00110_conf_0.chk"
 Charge =  0 Multiplicity = 1

                         Standard orientation:
 ---------------------------------------------------------------------
 Center     Atomic      Atomic             Coordinates (Angstroms)
 Number     Number       Type             X           Y           Z
 ---------------------------------------------------------------------
      1          9           0        3.928853   -0.000033   -0.000057
      2          6           0        2.595419    0.000014   -0.000045
      3          6           0        1.898970    1.205687   -0.000033
      4          9           0        2.568133    2.361832   -0.000028
      5          6           0        0.505621    1.200864   -0.000007
      6          9           0       -0.127438    2.375613    0.000020
      7          6           0       -0.203993    0.000004    0.000003
      8         53           0       -2.311246   -0.000003    0.000031
      9          6           0        0.505625   -1.200883   -0.000019
     10          9           0       -0.127457   -2.375613    0.000011
     11          6           0        1.898950   -1.205676   -0.000038
     12          9           0        2.568185   -2.361785   -0.000039
 ---------------------------------------------------------------------

 SCF Done:  E(RM062X) =  -1025.48094626     A.U. after    1 cycles

      1  F    Isotropic =   333.5715   Anisotropy =   199.8094

      2  C    Isotropic =    23.1988   Anisotropy =   110.5185

      3  C    Isotropic =    27.1420   Anisotropy =   104.3898

      4  F    Isotropic =   342.5423   Anisotropy =   172.1728

      5  C    Isotropic =    17.8260   Anisotropy =   114.2265

      6  F    Isotropic =   298.3635   Anisotropy =   133.1905

      7  C    Isotropic =    62.4320   Anisotropy =   109.0710

      8  I    Isotropic =   437.8519   Anisotropy =    61.9730

      9  C    Isotropic =    17.8290   Anisotropy =   114.2255

     10  F    Isotropic =   298.3676   Anisotropy =   133.1925

     11  C    Isotropic =    27.1416   Anisotropy =   104.3888

     12  F    Isotropic =   342.5412   Anisotropy =   172.1666

 The electronic state is 1-A.
 Alpha  occ. eigenvalues --  -25.30017 -25.29674 -25.29674 -25.29639 -25.29639
 Alpha  occ. eigenvalues --  -10.67904 -10.67887 -10.67885 -10.67403 -10.67395
 Alpha  occ. eigenvalues --  -10.63209  -7.13204  -5.12693  -5.11446  -5.11408
 Alpha  occ. eigenvalues --   -2.09509  -2.09014  -2.08989  -2.07943  -2.07942
 Alpha  occ. eigenvalues --   -1.42561  -1.41945  -1.41430  -1.40556  -1.40175
 Alpha  occ. eigenvalues --   -1.02502  -0.91199  -0.89798  -0.81980  -0.77665
 Alpha  occ. eigenvalues --   -0.75915  -0.70424  -0.70206  -0.67857  -0.64742
 Alpha  occ. eigenvalues --   -0.64515  -0.63898  -0.62641  -0.61483  -0.60511
 Alpha  occ. eigenvalues --   -0.58799  -0.58332  -0.56504  -0.55995  -0.53569
 Alpha  occ. eigenvalues --   -0.52189  -0.48448  -0.45831  -0.45252  -0.37643
 Alpha  occ. eigenvalues --   -0.34421  -0.32956  -0.31536
 Alpha virt. eigenvalues --   -0.03491  -0.01453  -0.00012   0.03984   0.09484
 Alpha virt. eigenvalues --    0.11845   0.14579   0.16242   0.16244   0.16681
 Alpha virt. eigenvalues --    0.18513   0.19482   0.19932   0.20917   0.21989

 Mulliken charges:
               1
     1  F   -0.166608
     2  C    0.168020
     3  C    0.181193
     4  F   -0.170557
     5  C    0.203610
     6  F   -0.172796
     7  C   -0.135201
     8  I    0.050888
     9  C    0.203610
    10  F   -0.172793
    11  C    0.181195
    12  F   -0.170560
 Sum of Mulliken charges =  -0.00000

 Dipole moment (field-independent basis, Debye):
    X=             -1.0998    Y=              0.0000    Z=             -0.0000  Tot=              1.0998
 Quadrupole moment (field-independent basis, Debye-Ang):
   XX=            -85.2728   YY=            -92.0241   ZZ=            -82.9319
   XY=              0.0003   XZ=              0.0000   YZ=             -0.0000

 Normal termination of Gaussian 16 at Tue Sep 17 10:28:16 2024.
