 Gaussian 16, Revision C.02,

 ----------------------------------------------------------------------
 #p B3LYP/6-31G(d,p) EmpiricalDispersion=GD3BJ opt freq scf(xqc,tight)
 integral(grid=ultrafine)
 ----------------------------------------------------------------------

 ----------------------------------
 opt-freq conformers_unique/conf_ac
 ----------------------------------
 Symbolic Z-matrix:
 Charge =  0 Multiplicity = 1

 SCF Done:  E(RB3LYP) =  -3067.72108966     A.U. after   14 cycles
 SCF Done:  E(RB3LYP) =  -3067.72360750     A.U. after   12 cycles
 SCF Done:  E(RB3LYP) =  -3067.72379709     A.U. after   11 cycles
 SCF Done:  E(RB3LYP) =  -3067.72388233     A.U. after   11 cycles
 SCF Done:  E(RB3LYP) =  -3067.72392389     A.U. after   11 cycles
 SCF Done:  E(RB3LYP) =  -3067.72395523     A.U. after   12 cycles
 SCF Done:  E(RB3LYP) =  -3067.72398440     A.U. after   11 cycles
 SCF Done:  E(RB3LYP) =  -3067.72400501     A.U. after   11 cycles
 SCF Done:  E(RB3LYP) =  -3067.72403238     A.U. after   11 cycles
 SCF Done:  E(RB3LYP) =  -3067.72406235     A.U. after   12 cycles
 SCF Done:  E(RB3LYP) =  -3067.72576507     A.U. after   10 cycles
 SCF Done:  E(RB3LYP) =  -3067.72578931     A.U. after   11 cycles
 SCF Done:  E(RB3LYP) =  -3067.72579978     A.U. after   11 cycles
 SCF Done:  E(RB3LYP) =  -3067.72580539     A.U. after   10 cycles
 SCF Done:  E(RB3LYP) =  -3067.72580679     A.U. after    9 cycles
 SCF Done:  E(RB3LYP) =  -3067.72580693     A.U. after    7 cycles
 SCF Done:  E(RB3LYP) =  -3067.72580699     A.U. after    7 cycles
 Optimization completed.
    -- Stationary point found.
 Normal termination of Gaussian 16 at Tue Sep 17 10:05:26 2024.

 ----------------------------------------------------------------------
 #P Geom=AllCheck Guess=TCheck SCRF=Check GenChk RB3LYP/6-31G(d,p) Freq
 ----------------------------------------------------------------------

 Structure from the checkpoint file:  "smiles_00124_conf_2.chk"
 ----------------------------------
 opt-freq conformers_unique/conf_ac
 ----------------------------------
 Charge =  0 Multiplicity = 1

 SCF Done:  E(RB3LYP) =  -3067.72580699     A.U. after    1 cycles

                      1                      2                      3
                      A                      A                      A
 Frequencies --     21.5454                27.7200                51.9211
 Red. masses --      4.1946                 6.6398                 4.6164
 Frc consts  --      0.0011                 0.0030                 0.0073
 IR Inten    --      0.1582                 0.4168                 1.8219

                      4                      5                      6
                      A                      A                      A
 Frequencies --    154.6509               174.2052               233.9824
 Red. masses --      5.6937                 5.9497                 4.9070
 Frc consts  --      0.0802                 0.1064                 0.1583
 IR Inten    --      0.1857                 0.1651                 0.9339

                      7                      8                      9
                      A                      A                      A
 Frequencies --    279.8252               309.6990               368.3416
 Red. masses --      3.9585                 8.6399                 5.9265
 Frc consts  --      0.1826                 0.4882                 0.4738
 IR Inten    --      1.1549                 1.9157                 1.1819

                     10                     11                     12
                      A                      A                      A
 Frequencies --    400.4066               415.8466               477.1765
 Red. masses --      2.4992                 2.9754                 3.5037
 Frc consts  --      0.2361                 0.3031                 0.4700
 IR Inten    --      2.9964                 0.2777                 4.1537

                     13                     14                     15
                      A                      A                      A
 Frequencies --    585.5986               630.3888               637.7315
 Red. masses --      4.9245                 4.1175                 4.2130
 Frc consts  --      0.9950                 0.9640                 1.0095
 IR Inten    --      2.4008                10.0763                10.9099

                     16                     17                     18
                      A                      A                      A
 Frequencies --    669.4328               711.1901               738.4193
 Red. masses --      6.6069                 2.8625                 1.5452
 Frc consts  --      1.7445                 0.8530                 0.4964
 IR Inten    --      2.2506                 5.6695                58.0862

                     19                     20                     21
                      A                      A                      A
 Frequencies --    790.3250               802.0822               827.4954
 Red. masses --      2.1290                 1.7624                 4.0343
 Frc consts  --      0.7835                 0.6680                 1.6276
 IR Inten    --      4.9496                13.7380                 1.1780

                     22                     23                     24
                      A                      A                      A
 Frequencies --    865.1421               872.2742               922.7384
 Red. masses --      1.2464                 1.3416                 1.3887
 Frc consts  --      0.5496                 0.6014                 0.6967
 IR Inten    --      0.1234                14.6025                 3.2682

                     25                     26                     27
                      A                      A                      A
 Frequencies --    966.1501               977.5353               980.2633
 Red. masses --      2.2747                 3.5393                 1.5950
 Frc consts  --      1.2510                 1.9926                 0.9030
 IR Inten    --     24.1255                36.2536                 5.7445

                     28                     29                     30
                      A                      A                      A
 Frequencies --   1004.7680              1015.7000              1022.0623
 Red. masses --      1.3094                 3.3677                 5.2710
 Frc consts  --      0.7788                 2.0470                 3.2441
 IR Inten    --      0.2180                17.6242                 2.5736

                     31                     32                     33
                      A                      A                      A
 Frequencies --   1058.6653              1113.3444              1135.6354
 Red. masses --      2.2086                 1.5853                 1.7062
 Frc consts  --      1.4584                 1.1578                 1.2965
 IR Inten    --      3.6718                 3.2195                 4.1463

                     34                     35                     36
                      A                      A                      A
 Frequencies --   1177.4323              1189.6033              1210.8084
 Red. masses --      1.3597                 1.1008                 1.1308
 Frc consts  --      1.1106                 0.9179                 0.9767
 IR Inten    --      9.8499                 0.2733                 2.7285

                     37                     38                     39
                      A                      A                      A
 Frequencies --   1221.5730              1232.3421              1333.4967
 Red. masses --      1.7920                 2.3340                 2.4549
 Frc consts  --      1.5755                 2.0884                 2.5720
 IR Inten    --     13.0471                 4.9106                11.5881

                     40                     41                     42
                      A                      A                      A
 Frequencies --   1350.5819              1367.0785              1377.9159
 Red. masses --      2.9889                 2.2316                 3.2832
 Frc consts  --      3.2122                 2.4573                 3.6728
 IR Inten    --     64.3774                 1.7023                 4.8327

                     43                     44                     45
                      A                      A                      A
 Frequencies --   1395.8352              1423.3595              1467.1232
 Red. masses --      1.5935                 4.3893                 2.3987
 Frc consts  --      1.8292                 5.2393                 3.0420
 IR Inten    --     31.5209                15.8551                18.0810

                     46                     47                     48
                      A                      A                      A
 Frequencies --   1492.1154              1501.2939              1543.0680
 Red. masses --      1.4664                 2.0774                 2.2507
 Frc consts  --      1.9236                 2.7587                 3.1574
 IR Inten    --      8.1259                18.8913                 9.8664

                     49                     50                     51
                      A                      A                      A
 Frequencies --   1568.8426              1647.2299              1666.5290
 Red. masses --      4.6246                 5.6991                 5.5969
 Frc consts  --      6.7063                 9.1111                 9.1584
 IR Inten    --      3.7000                 1.3601                 2.9841

                     52                     53                     54
                      A                      A                      A
 Frequencies --   3072.9090              3126.0248              3172.9930
 Red. masses --      1.0604                 1.1049                 1.0875
 Frc consts  --      5.8996                 6.3615                 6.4507
 IR Inten    --     23.7020                 3.0280                 8.5747

                     55                     56                     57
                      A                      A                      A
 Frequencies --   3184.4741              3193.7138              3202.1704
 Red. masses --      1.0866                 1.0905                 1.0943
 Frc consts  --      6.4920                 6.5535                 6.6114
 IR Inten    --      0.6126                13.3810                20.3474

                     58                     59                     60
                      A                      A                      A
 Frequencies --   3210.4722              3272.1175              3289.1392
 Red. masses --      1.0985                 1.0973                 1.0990
 Frc consts  --      6.6712                 6.9218                 7.0052
 IR Inten    --     17.1868                 1.0045                 0.7827

 - Thermochemistry -
 -------------------
 Temperature   298.150 Kelvin.  Pressure   1.00000 Atm.
 Atom     1 has atomic number 35 and mass  78.91834

 Molecular mass:   235.99491 amu.
 Principal axes and moments of inertia in atomic units:
                           1         2         3
     Eigenvalues --  1313.962327447.929277825.83343
           X            0.99973   0.02284  -0.00448
           Y           -0.02267   0.99911   0.03559
           Z            0.00529  -0.03548   0.99936
 This molecule is an asymmetric top.
 Rotational symmetry number  1.
 Warning -- assumption of classical behavior for rotation
           may cause significant error
 Rotational temperatures (Kelvin)      0.06592     0.01163     0.01107
 Rotational constants (GHZ):           1.37351     0.24231     0.23061
 Zero-point vibrational energy     449392.2 (Joules/Mol)
                                  107.40731 (Kcal/Mol)
 Warning -- explicit consideration of  13 degrees of freedom as
           vibrations may cause significant error
 Vibrational temperatures:     31.00    39.88    74.70   222.51   250.64
          (Kelvin)            336.65   402.61   445.59   529.96   576.10
                              598.31   686.55   842.55   906.99   917.55
                              963.16  1023.24  1062.42  1137.10  1154.02
                             1190.58  1244.75  1255.01  1327.61  1390.07
                             1406.46  1410.38  1445.64  1461.37  1470.52
                             1523.18  1601.85  1633.93  1694.06  1711.57
                             1742.08  1757.57  1773.07  1918.60  1943.19
                             1966.92  1982.51  2008.30  2047.90  2110.86
                             2146.82  2160.03  2220.13  2257.21  2370.00
                             2397.76  4421.23  4497.65  4565.23  4581.75
                             4595.04  4607.21  4619.15  4707.85  4732.34

 Zero-point correction=                           0.171164 (Hartree/Particle)
 Thermal correction to Energy=                    0.182040
 Thermal correction to Enthalpy=                  0.182984
 Thermal correction to Gibbs Free Energy=         0.130725
 Sum of electronic and zero-point Energies=          -3067.554643
 Sum of electronic and thermal Energies=             -3067.543767
 Sum of electronic and thermal Enthalpies=           -3067.542823
 Sum of electronic and thermal Free Energies=        -3067.595082

                     E (Thermal)             CV                S
                      KCal/Mol        Cal/Mol-Kelvin    Cal/Mol-Kelvin
 Total                  114.232             40.781            109.990
 Electronic               0.000              0.000              0.000
 Translational            0.889              2.981             42.277
 Rotational               0.889              2.981             32.704
 Vibrational            112.455             34.819             35.008
 Vibration     1          0.593              1.985              6.486
 Vibration     2          0.593              1.984              5.986
 Vibration     3          0.596              1.977              4.743
 Vibration     4          0.620              1.897              2.614
 Vibration     5          0.627              1.874              2.390
 Vibration     6          0.654              1.789              1.848
 Vibration     7          0.680              1.711              1.535
 Vibration     8          0.699              1.655              1.364
 Vibration     9          0.741              1.537              1.087
 Vibration    10          0.766              1.469              0.961
 Vibration    11          0.779              1.436              0.906
 Vibration    12          0.834              1.301              0.718
 Vibration    13          0.943              1.063              0.475

 Optimization completed.
    -- Stationary point found.
 Normal termination of Gaussian 16 at Tue Sep 17 10:07:05 2024.

 ----------------------------------------------------------------------
 #p M062X/def2tzvp geom=check guess=read scf(xqc,tight) integral(grid=u
 ltrafine) scrf(SMD, solvent=1,4-Dioxane) polar prop=efg volume
 ----------------------------------------------------------------------

 ---
 spe
 ---
 Structure from the checkpoint file:  "smiles_00124_conf_2.chk"
 Charge =  0 Multiplicity = 1

 SCF Done:  E(RM062X) =  -3070.13978654     A.U. after   12 cycles

  Exact polarizability:     200.399       9.383     141.129     -13.721      -0.824     154.317
 Approx polarizability:     195.927       6.321     165.956     -16.369      -3.471     187.034

 Normal termination of Gaussian 16 at Tue Sep 17 10:54:56 2024.
 Gaussian 16:  ES64L-G16RevC.02  7-Dec-2021

 ----------------------------------------------------------------------
 #p M062X/def2tzvp geom=check guess=read scf(xqc,tight) integral(grid=u
 ltrafine) scrf(SMD, solvent=1,4-Dioxane) nmr=giao
 ----------------------------------------------------------------------

 ---
 spe
 ---
 Structure from the checkpoint file:  "smiles_00124_conf_2.chk"
 Charge =  0 Multiplicity = 1

                         Standard orientation:
 ---------------------------------------------------------------------
 Center     Atomic      Atomic             Coordinates (Angstroms)
 Number     Number       Type             X           Y           Z
 ---------------------------------------------------------------------
      1         35           0       -3.409294    0.799416   -0.119490
      2          6           0       -1.882976   -0.290367    0.044628
      3          6           0       -1.632055   -1.274402    1.021939
      4          7           0       -0.447615   -1.851619    0.816369
      5          7           0        0.050553   -1.251251   -0.290157
      6          6           0        1.404506   -1.561299   -0.727791
      7          6           0        2.412899   -0.516247   -0.298022
      8          6           0        3.339267   -0.008699   -1.211128
      9          6           0        4.281465    0.939928   -0.809508
     10          6           0        4.295578    1.392347    0.508784
     11          6           0        3.366686    0.891589    1.424447
     12          6           0        2.430930   -0.059150    1.025008
     13          6           0       -0.776421   -0.293001   -0.782615
     14          1           0       -2.262235   -1.579210    1.844402
     15          1           0        1.631816   -2.536983   -0.291131
     16          1           0        1.404795   -1.669863   -1.816260
     17          1           0        3.324335   -0.355261   -2.241349
     18          1           0        4.996426    1.328913   -1.527976
     19          1           0        5.023841    2.133826    0.822396
     20          1           0        3.372556    1.243222    2.451589
     21          1           0        1.704127   -0.449227    1.731022
     22          1           0       -0.530218    0.300926   -1.648492
 ---------------------------------------------------------------------

 SCF Done:  E(RM062X) =  -3070.13978654     A.U. after    1 cycles

      1  Br   Isotropic =  2346.1024   Anisotropy =   944.9585

      2  C    Isotropic =    58.9440   Anisotropy =    93.5007

      3  C    Isotropic =    24.5607   Anisotropy =   144.7527

      4  N    Isotropic =  -129.9620   Anisotropy =   387.5302

      5  N    Isotropic =   -10.0460   Anisotropy =   198.9318

      6  C    Isotropic =   123.7483   Anisotropy =    43.5228

      7  C    Isotropic =    21.9601   Anisotropy =   223.5528

      8  C    Isotropic =    37.0513   Anisotropy =   194.9844

      9  C    Isotropic =    34.7769   Anisotropy =   216.6805

     10  C    Isotropic =    34.4949   Anisotropy =   218.7110

     11  C    Isotropic =    33.4471   Anisotropy =   221.2096

     12  C    Isotropic =    35.5432   Anisotropy =   219.8362

     13  C    Isotropic =    35.7012   Anisotropy =   141.9276

     14  H    Isotropic =    23.6849   Anisotropy =     5.9549

     15  H    Isotropic =    26.1076   Anisotropy =     4.6982

     16  H    Isotropic =    26.6224   Anisotropy =     6.7268

     17  H    Isotropic =    23.6711   Anisotropy =     8.0058

     18  H    Isotropic =    23.6311   Anisotropy =     5.8904

     19  H    Isotropic =    23.6962   Anisotropy =     5.5769

     20  H    Isotropic =    23.6730   Anisotropy =     7.0313

     21  H    Isotropic =    23.7724   Anisotropy =    11.9998

     22  H    Isotropic =    23.9229   Anisotropy =     8.7274

 The electronic state is 1-A.
 Alpha  occ. eigenvalues -- -485.37910 -63.36380 -57.18334 -57.18085 -57.18082
 Alpha  occ. eigenvalues --  -14.83818 -14.78201 -10.59187 -10.58888 -10.58675
 Alpha  occ. eigenvalues --  -10.56896 -10.55866 -10.54844 -10.54690 -10.54623
 Alpha  occ. eigenvalues --  -10.54517 -10.54469  -9.03033  -6.85472  -6.84544
 Alpha  occ. eigenvalues --   -6.84534  -2.88851  -2.88503  -2.88500  -2.87631
 Alpha  occ. eigenvalues --   -2.87630  -1.17492  -0.97783  -0.94921  -0.92249
 Alpha  occ. eigenvalues --   -0.87301  -0.84684  -0.84062  -0.77902  -0.69559
 Alpha  occ. eigenvalues --   -0.68482  -0.67731  -0.65495  -0.60843  -0.59249
 Alpha  occ. eigenvalues --   -0.55260  -0.52927  -0.52625  -0.51694  -0.49142
 Alpha  occ. eigenvalues --   -0.48726  -0.47999  -0.47157  -0.46321  -0.43607
 Alpha  occ. eigenvalues --   -0.41298  -0.40404  -0.38956  -0.38479  -0.34805
 Alpha  occ. eigenvalues --   -0.32584  -0.31358  -0.30537  -0.29253
 Alpha virt. eigenvalues --    0.01025   0.01541   0.03488   0.04812   0.07694
 Alpha virt. eigenvalues --    0.08120   0.09333   0.10881   0.11665   0.12331
 Alpha virt. eigenvalues --    0.12612   0.13618   0.13811   0.14781   0.15523

 Mulliken charges:
               1
     1  Br  -0.094129
     2  C   -0.084916
     3  C   -0.076732
     4  N   -0.277822
     5  N    0.097574
     6  C   -0.299005
     7  C    0.096592
     8  C   -0.207977
     9  C   -0.153691
    10  C   -0.172093
    11  C   -0.154919
    12  C   -0.185122
    13  C   -0.093595
    14  H    0.178648
    15  H    0.198355
    16  H    0.188645
    17  H    0.163055
    18  H    0.162143
    19  H    0.163217
    20  H    0.163780
    21  H    0.187589
    22  H    0.200404
 Sum of Mulliken charges =  -0.00000

 Dipole moment (field-independent basis, Debye):
    X=              2.6696    Y=              0.4450    Z=             -1.7333  Tot=              3.2139
 Quadrupole moment (field-independent basis, Debye-Ang):
   XX=            -86.6786   YY=            -90.8213   ZZ=            -81.3999
   XY=              3.2166   XZ=             -4.2030   YZ=              3.1246

 Normal termination of Gaussian 16 at Tue Sep 17 11:12:22 2024.
