 Gaussian 16, Revision C.02,

 ----------------------------------------------------------------------
 #p B3LYP/6-31G(d,p) EmpiricalDispersion=GD3BJ opt freq scf(xqc,tight)
 integral(grid=ultrafine)
 ----------------------------------------------------------------------

 ----------------------------------
 opt-freq conformers_unique/conf_ab
 ----------------------------------
 Symbolic Z-matrix:
 Charge =  0 Multiplicity = 1

 SCF Done:  E(RB3LYP) =  -3086.21404348     A.U. after   14 cycles
 SCF Done:  E(RB3LYP) =  -3086.21658388     A.U. after   12 cycles
 SCF Done:  E(RB3LYP) =  -3086.21679353     A.U. after   11 cycles
 SCF Done:  E(RB3LYP) =  -3086.21681292     A.U. after    9 cycles
 SCF Done:  E(RB3LYP) =  -3086.21681518     A.U. after    7 cycles
 SCF Done:  E(RB3LYP) =  -3086.21681528     A.U. after    7 cycles
 Optimization completed.
    -- Stationary point found.
 Normal termination of Gaussian 16 at Tue Sep 17 09:56:42 2024.

 ----------------------------------------------------------------------
 #P Geom=AllCheck Guess=TCheck SCRF=Check GenChk RB3LYP/6-31G(d,p) Freq
 ----------------------------------------------------------------------

 Structure from the checkpoint file:  "smiles_00011_conf_1.chk"
 ----------------------------------
 opt-freq conformers_unique/conf_ab
 ----------------------------------
 Charge =  0 Multiplicity = 1

 SCF Done:  E(RB3LYP) =  -3086.21681528     A.U. after    1 cycles
 ******    1 imaginary frequencies (negative Signs) ******

                      1                      2                      3
                      A                      A                      A
 Frequencies --     -8.8932                66.4380                91.8482
 Red. masses --      3.3250                 4.7705                 3.7181
 Frc consts  --      0.0002                 0.0124                 0.0185
 IR Inten    --      0.0376                 0.9036                 0.0000

                      4                      5                      6
                      A                      A                      A
 Frequencies --    117.4724               138.7736               223.2517
 Red. masses --      5.9899                 2.4126                 8.7931
 Frc consts  --      0.0487                 0.0274                 0.2582
 IR Inten    --      0.3893                 1.4446                 1.4618

                      7                      8                      9
                      A                      A                      A
 Frequencies --    250.3161               267.4635               274.2590
 Red. masses --      3.8819                 4.1456                 1.7880
 Frc consts  --      0.1433                 0.1747                 0.0792
 IR Inten    --      1.8850                 2.7562                 0.0493

                     10                     11                     12
                      A                      A                      A
 Frequencies --    305.8733               400.0214               426.6036
 Red. masses --      3.7839                 7.4053                 4.3463
 Frc consts  --      0.2086                 0.6982                 0.4660
 IR Inten    --      0.9897                 1.2591                 0.0112

                     13                     14                     15
                      A                      A                      A
 Frequencies --    463.6272               499.2439               523.3654
 Red. masses --      2.5699                 4.7748                 2.8780
 Frc consts  --      0.3255                 0.7012                 0.4645
 IR Inten    --      0.7522                15.6430                 1.1596

                     16                     17                     18
                      A                      A                      A
 Frequencies --    545.6099               641.6114               657.8745
 Red. masses --      2.1907                 2.9554                 9.0309
 Frc consts  --      0.3842                 0.7168                 2.3029
 IR Inten    --      0.0509                 4.5191                 6.0787

                     19                     20                     21
                      A                      A                      A
 Frequencies --    773.2177               782.2469               806.1044
 Red. masses --      6.1998                 1.3304                10.9683
 Frc consts  --      2.1839                 0.4796                 4.1993
 IR Inten    --     28.2954                 1.7988                19.0323

                     22                     23                     24
                      A                      A                      A
 Frequencies --    848.3719               880.2879               923.0002
 Red. masses --      3.1201                 1.4660                 2.2106
 Frc consts  --      1.3231                 0.6693                 1.1096
 IR Inten    --      2.4096                 1.1228                 2.1674

                     25                     26                     27
                      A                      A                      A
 Frequencies --    963.4024               972.8522               994.9480
 Red. masses --      1.5068                 2.4321                 1.3724
 Frc consts  --      0.8240                 1.3562                 0.8004
 IR Inten    --      6.9467                14.3261                 0.0901

                     28                     29                     30
                      A                      A                      A
 Frequencies --   1000.5214              1012.8224              1040.1305
 Red. masses --      1.5325                 7.9101                 2.2756
 Frc consts  --      0.9039                 4.7808                 1.4505
 IR Inten    --      1.3671                 2.2256                13.1938

                     31                     32                     33
                      A                      A                      A
 Frequencies --   1078.1062              1104.3781              1142.3973
 Red. masses --      2.3244                 1.7505                 2.1779
 Frc consts  --      1.5918                 1.2579                 1.6746
 IR Inten    --      4.6980                 0.0860                 0.7497

                     34                     35                     36
                      A                      A                      A
 Frequencies --   1143.2069              1168.4506              1215.4096
 Red. masses --      2.3972                 2.4712                 1.2563
 Frc consts  --      1.8459                 1.9878                 1.0934
 IR Inten    --     18.4141                10.2861                43.7264

                     37                     38                     39
                      A                      A                      A
 Frequencies --   1239.1217              1265.7845              1284.2472
 Red. masses --      3.1249                 1.2281                 3.0923
 Frc consts  --      2.8269                 1.1594                 3.0049
 IR Inten    --     14.2605                 3.0298                 2.7922

                     40                     41                     42
                      A                      A                      A
 Frequencies --   1293.7522              1305.9807              1333.6055
 Red. masses --      1.2150                 1.1683                 1.6251
 Frc consts  --      1.1982                 1.1740                 1.7029
 IR Inten    --     20.2368                53.6786                32.7054

                     43                     44                     45
                      A                      A                      A
 Frequencies --   1355.6836              1378.9590              1390.3397
 Red. masses --      1.3293                 1.3435                 1.4075
 Frc consts  --      1.4395                 1.5052                 1.6030
 IR Inten    --      1.6641                 1.2790                85.5662

                     46                     47                     48
                      A                      A                      A
 Frequencies --   1400.8509              1404.0996              1430.8752
 Red. masses --      1.4029                 1.5227                 3.9746
 Frc consts  --      1.6220                 1.7687                 4.7946
 IR Inten    --      4.2425                54.5107                 0.5175

                     49                     50                     51
                      A                      A                      A
 Frequencies --   1433.9137              1496.4361              1505.0895
 Red. masses --      1.8720                 1.0786                 1.0866
 Frc consts  --      2.2678                 1.4231                 1.4502
 IR Inten    --     20.0075                 7.0085                 5.2627

                     52                     53                     54
                      A                      A                      A
 Frequencies --   1516.9419              1531.2424              1535.3403
 Red. masses --      1.1142                 1.0821                 1.1444
 Frc consts  --      1.5107                 1.4949                 1.5894
 IR Inten    --     57.4502                 2.3174               108.4424

                     55                     56                     57
                      A                      A                      A
 Frequencies --   1559.5545              1567.2969              1644.6255
 Red. masses --      5.0297                 7.1219                 6.4413
 Frc consts  --      7.2076                10.3074                10.2650
 IR Inten    --    584.5973                83.1817               435.5231

                     58                     59                     60
                      A                      A                      A
 Frequencies --   3003.5311              3007.7975              3047.6853
 Red. masses --      1.0739                 1.0748                 1.0603
 Frc consts  --      5.7079                 5.7291                 5.8028
 IR Inten    --     67.1518                20.2447                17.6905

                     61                     62                     63
                      A                      A                      A
 Frequencies --   3051.8474              3058.0195              3082.5122
 Red. masses --      1.0651                 1.0648                 1.1007
 Frc consts  --      5.8448                 5.8667                 6.1620
 IR Inten    --     47.8275                30.5670                16.3086

                     64                     65                     66
                      A                      A                      A
 Frequencies --   3098.6112              3108.0520              3136.7274
 Red. masses --      1.1020                 1.1046                 1.0904
 Frc consts  --      6.2341                 6.2866                 6.3212
 IR Inten    --     31.4058                69.9050                14.9829

                     67                     68                     69
                      A                      A                      A
 Frequencies --   3137.2398              3174.4654              3175.9500
 Red. masses --      1.0901                 1.0919                 1.0925
 Frc consts  --      6.3213                 6.4828                 6.4927
 IR Inten    --      2.2463                13.8836                12.0287

 - Thermochemistry -
 -------------------
 Temperature   298.150 Kelvin.  Pressure   1.00000 Atm.
 Atom     1 has atomic number 35 and mass  78.91834

 Molecular mass:   241.02146 amu.
 Principal axes and moments of inertia in atomic units:
                           1         2         3
     Eigenvalues --   696.606418668.645469212.37682
           X            1.00000  -0.00000   0.00002
           Y            0.00000   0.99999   0.00432
           Z           -0.00002  -0.00432   0.99999
 This molecule is an asymmetric top.
 Rotational symmetry number  1.
 Warning -- assumption of classical behavior for rotation
           may cause significant error
 Rotational temperatures (Kelvin)      0.12434     0.00999     0.00940
 Rotational constants (GHZ):           2.59076     0.20819     0.19590
    1 imaginary frequencies ignored.
 Zero-point vibrational energy     542504.6 (Joules/Mol)
                                  129.66171 (Kcal/Mol)
 Warning -- explicit consideration of  15 degrees of freedom as
           vibrations may cause significant error
 Vibrational temperatures:     95.59   132.15   169.02   199.66   321.21
          (Kelvin)            360.15   384.82   394.60   440.08   575.54
                              613.79   667.06   718.30   753.01   785.01
                              923.14   946.53  1112.49  1125.48  1159.80
                             1220.62  1266.54  1327.99  1386.12  1399.72
                             1431.51  1439.53  1457.23  1496.52  1551.15
                             1588.95  1643.65  1644.82  1681.14  1748.70
                             1782.82  1821.18  1847.75  1861.42  1879.01
                             1918.76  1950.53  1984.01  2000.39  2015.51
                             2020.19  2058.71  2063.08  2153.04  2165.49
                             2182.54  2203.12  2209.01  2243.85  2254.99
                             2366.25  4321.41  4327.55  4384.94  4390.93
                             4399.81  4435.05  4458.21  4471.79  4513.05
                             4513.79  4567.35  4569.48

 Zero-point correction=                           0.206629 (Hartree/Particle)
 Thermal correction to Energy=                    0.217387
 Thermal correction to Enthalpy=                  0.218331
 Thermal correction to Gibbs Free Energy=         0.168768
 Sum of electronic and zero-point Energies=          -3086.010186
 Sum of electronic and thermal Energies=             -3085.999428
 Sum of electronic and thermal Enthalpies=           -3085.998484
 Sum of electronic and thermal Free Energies=        -3086.048047

                     E (Thermal)             CV                S
                      KCal/Mol        Cal/Mol-Kelvin    Cal/Mol-Kelvin
 Total                  136.413             41.647            104.315
 Electronic               0.000              0.000              0.000
 Translational            0.889              2.981             42.340
 Rotational               0.889              2.981             32.387
 Vibrational            134.635             35.685             29.588
 Vibration     1          0.598              1.970              4.256
 Vibration     2          0.602              1.955              3.620
 Vibration     3          0.608              1.935              3.142
 Vibration     4          0.614              1.915              2.821
 Vibration     5          0.649              1.806              1.933
 Vibration     6          0.663              1.762              1.728
 Vibration     7          0.673              1.733              1.613
 Vibration     8          0.677              1.721              1.569
 Vibration     9          0.696              1.663              1.385
 Vibration    10          0.766              1.470              0.963
 Vibration    11          0.788              1.412              0.870
 Vibration    12          0.821              1.331              0.756
 Vibration    13          0.855              1.252              0.660
 Vibration    14          0.878              1.198              0.602
 Vibration    15          0.901              1.149              0.553

                           ! Non-Optimized Parameters !
 Normal termination of Gaussian 16 at Tue Sep 17 09:58:50 2024.

 ----------------------------------------------------------------------
 #p M062X/def2tzvp geom=check guess=read scf(xqc,tight) integral(grid=u
 ltrafine) scrf(SMD, solvent=1,4-Dioxane) polar prop=efg volume
 ----------------------------------------------------------------------

 ---
 spe
 ---
 Structure from the checkpoint file:  "smiles_00011_conf_1.chk"
 Charge =  0 Multiplicity = 1

 SCF Done:  E(RM062X) =  -3088.61992913     A.U. after   12 cycles

  Exact polarizability:     256.086      -0.003     151.129      -0.015      -5.170     108.601
 Approx polarizability:     230.115      -0.002     174.600      -0.027      -8.186     131.953

 Normal termination of Gaussian 16 at Tue Sep 17 10:54:42 2024.
 Gaussian 16:  ES64L-G16RevC.02  7-Dec-2021

 ----------------------------------------------------------------------
 #p M062X/def2tzvp geom=check guess=read scf(xqc,tight) integral(grid=u
 ltrafine) scrf(SMD, solvent=1,4-Dioxane) nmr=giao
 ----------------------------------------------------------------------

 ---
 spe
 ---
 Structure from the checkpoint file:  "smiles_00011_conf_1.chk"
 Charge =  0 Multiplicity = 1

                         Standard orientation:
 ---------------------------------------------------------------------
 Center     Atomic      Atomic             Coordinates (Angstroms)
 Number     Number       Type             X           Y           Z
 ---------------------------------------------------------------------
      1         35           0       -3.931478   -0.000045    0.000478
      2          6           0       -2.029811   -0.000015   -0.000080
      3          6           0       -1.301331   -1.170614    0.203327
      4          7           0        0.026919   -1.185197    0.212771
      5          6           0        0.651028    0.000048   -0.000858
      6          7           0        2.009258   -0.000033   -0.001273
      7          6           0        2.760933   -1.251514    0.141804
      8          6           0        4.103248   -1.133600   -0.579063
      9          6           0        4.974348   -0.000119    0.002407
     10          6           0        4.101819    1.134193    0.580290
     11          6           0        2.761293    1.251229   -0.144077
     12          7           0        0.026739    1.185261   -0.214130
     13          6           0       -1.301496    1.170623   -0.203912
     14          1           0       -1.808940   -2.118486    0.368134
     15          1           0        2.913863   -1.486131    1.205664
     16          1           0        2.157601   -2.058974   -0.272961
     17          1           0        4.626076   -2.093465   -0.523574
     18          1           0        3.903650   -0.946719   -1.640404
     19          1           0        5.628199   -0.390816    0.789379
     20          1           0        5.631882    0.389880   -0.781834
     21          1           0        4.624817    2.093975    0.524938
     22          1           0        3.899473    0.948619    1.641334
     23          1           0        2.916880    1.484517   -1.207840
     24          1           0        2.156877    2.059108    0.268223
     25          1           0       -1.809243    2.118475   -0.368407
 ---------------------------------------------------------------------

 SCF Done:  E(RM062X) =  -3088.61992913     A.U. after    1 cycles

      1  Br   Isotropic =  2244.8208   Anisotropy =  1104.1045

      2  C    Isotropic =    47.6406   Anisotropy =   108.2343

      3  C    Isotropic =     1.3166   Anisotropy =   190.2739

      4  N    Isotropic =   -54.3331   Anisotropy =   467.0693

      5  C    Isotropic =     4.9526   Anisotropy =   157.9073

      6  N    Isotropic =   141.1410   Anisotropy =   107.9974

      7  C    Isotropic =   142.6975   Anisotropy =    26.4684

      8  C    Isotropic =   162.9210   Anisotropy =    10.1042

      9  C    Isotropic =   166.6022   Anisotropy =     5.0537

     10  C    Isotropic =   162.9104   Anisotropy =    10.1495

     11  C    Isotropic =   142.7334   Anisotropy =    26.5432

     12  N    Isotropic =   -54.3272   Anisotropy =   467.0659

     13  C    Isotropic =     1.3196   Anisotropy =   190.2666

     14  H    Isotropic =    22.8317   Anisotropy =    10.7038

     15  H    Isotropic =    28.7905   Anisotropy =     8.8783

     16  H    Isotropic =    27.6019   Anisotropy =     8.0048

     17  H    Isotropic =    30.0590   Anisotropy =    10.4331

     18  H    Isotropic =    30.0816   Anisotropy =     8.2991

     19  H    Isotropic =    30.2013   Anisotropy =    10.1873

     20  H    Isotropic =    30.2002   Anisotropy =    10.1901

     21  H    Isotropic =    30.0583   Anisotropy =    10.4318

     22  H    Isotropic =    30.0837   Anisotropy =     8.2965

     23  H    Isotropic =    28.7902   Anisotropy =     8.8820

     24  H    Isotropic =    27.5963   Anisotropy =     8.0136

     25  H    Isotropic =    22.8319   Anisotropy =    10.7031

 The electronic state is 1-A.
 Alpha  occ. eigenvalues -- -485.37915 -63.36388 -57.18338 -57.18094 -57.18091
 Alpha  occ. eigenvalues --  -14.77172 -14.75320 -14.75319 -10.64678 -10.59956
 Alpha  occ. eigenvalues --  -10.59951 -10.59344 -10.56476 -10.56474 -10.53350
 Alpha  occ. eigenvalues --  -10.53348 -10.53156  -9.03034  -6.85457  -6.84553
 Alpha  occ. eigenvalues --   -6.84542  -2.88833  -2.88498  -2.88495  -2.87646
 Alpha  occ. eigenvalues --   -2.87646  -1.12135  -1.04257  -0.99868  -0.92979
 Alpha  occ. eigenvalues --   -0.89557  -0.85597  -0.83035  -0.76026  -0.75951
 Alpha  occ. eigenvalues --   -0.71758  -0.69633  -0.63436  -0.60745  -0.60349
 Alpha  occ. eigenvalues --   -0.57162  -0.54476  -0.52789  -0.50111  -0.49849
 Alpha  occ. eigenvalues --   -0.48922  -0.48077  -0.47449  -0.47285  -0.44680
 Alpha  occ. eigenvalues --   -0.42984  -0.41446  -0.39200  -0.38769  -0.38478
 Alpha  occ. eigenvalues --   -0.37749  -0.37597  -0.36158  -0.33747  -0.31692
 Alpha  occ. eigenvalues --   -0.26083
 Alpha virt. eigenvalues --   -0.01192   0.02339   0.03847   0.06060   0.09253
 Alpha virt. eigenvalues --    0.09596   0.10427   0.11217   0.12215   0.12778
 Alpha virt. eigenvalues --    0.13413   0.13703   0.14948   0.15772   0.16092

 Mulliken charges:
               1
     1  Br  -0.107484
     2  C   -0.008771
     3  C   -0.065114
     4  N   -0.338560
     5  C    0.413545
     6  N   -0.116473
     7  C   -0.231214
     8  C   -0.301459
     9  C   -0.266737
    10  C   -0.301312
    11  C   -0.231466
    12  N   -0.338610
    13  C   -0.065077
    14  H    0.178204
    15  H    0.163505
    16  H    0.173495
    17  H    0.157039
    18  H    0.160066
    19  H    0.147044
    20  H    0.147017
    21  H    0.156997
    22  H    0.160003
    23  H    0.163498
    24  H    0.173657
    25  H    0.178209
 Sum of Mulliken charges =  -0.00000

 Dipole moment (field-independent basis, Debye):
    X=              3.0948    Y=              0.0002    Z=              0.0002  Tot=              3.0948
 Quadrupole moment (field-independent basis, Debye-Ang):
   XX=            -81.8825   YY=            -88.5347   ZZ=            -91.1671
   XY=             -0.0004   XZ=             -0.0020   YZ=              0.0832

 Normal termination of Gaussian 16 at Tue Sep 17 11:14:34 2024.
