 Gaussian 16, Revision C.02,

 ----------------------------------------------------------------------
 #p B3LYP/6-31G(d,p) EmpiricalDispersion=GD3BJ opt freq scf(xqc,tight)
 integral(grid=ultrafine)
 ----------------------------------------------------------------------

 ----------------------------------
 opt-freq conformers_unique/conf_ac
 ----------------------------------
 Symbolic Z-matrix:
 Charge =  0 Multiplicity = 1

 SCF Done:  E(RB3LYP) =  -3086.21379453     A.U. after   14 cycles
 SCF Done:  E(RB3LYP) =  -3086.21619317     A.U. after   12 cycles
 SCF Done:  E(RB3LYP) =  -3086.21641680     A.U. after   11 cycles
 SCF Done:  E(RB3LYP) =  -3086.21647504     A.U. after   10 cycles
 SCF Done:  E(RB3LYP) =  -3086.21653077     A.U. after   11 cycles
 SCF Done:  E(RB3LYP) =  -3086.21655841     A.U. after    9 cycles
 SCF Done:  E(RB3LYP) =  -3086.21660844     A.U. after   11 cycles
 SCF Done:  E(RB3LYP) =  -3086.21666944     A.U. after   11 cycles
 SCF Done:  E(RB3LYP) =  -3086.21674175     A.U. after   12 cycles
 SCF Done:  E(RB3LYP) =  -3086.21676860     A.U. after   10 cycles
 SCF Done:  E(RB3LYP) =  -3086.21677626     A.U. after    9 cycles
 SCF Done:  E(RB3LYP) =  -3086.21678456     A.U. after    9 cycles
 SCF Done:  E(RB3LYP) =  -3086.21679248     A.U. after    9 cycles
 SCF Done:  E(RB3LYP) =  -3086.21679520     A.U. after    8 cycles
 SCF Done:  E(RB3LYP) =  -3086.21679544     A.U. after    7 cycles
 SCF Done:  E(RB3LYP) =  -3086.21679548     A.U. after    7 cycles
 Optimization completed.
    -- Stationary point found.
 Normal termination of Gaussian 16 at Tue Sep 17 10:01:02 2024.

 ----------------------------------------------------------------------
 #P Geom=AllCheck Guess=TCheck SCRF=Check GenChk RB3LYP/6-31G(d,p) Freq
 ----------------------------------------------------------------------

 Structure from the checkpoint file:  "smiles_00011_conf_2.chk"
 ----------------------------------
 opt-freq conformers_unique/conf_ac
 ----------------------------------
 Charge =  0 Multiplicity = 1

 SCF Done:  E(RB3LYP) =  -3086.21679548     A.U. after    1 cycles

                      1                      2                      3
                      A                      A                      A
 Frequencies --     25.6289                63.0519                91.2640
 Red. masses --      3.8036                 3.4184                 4.4508
 Frc consts  --      0.0015                 0.0080                 0.0218
 IR Inten    --      0.1824                 0.6461                 0.0241

                      4                      5                      6
                      A                      A                      A
 Frequencies --    100.9448               137.4180               230.1750
 Red. masses --      3.0080                 4.0798                 5.5845
 Frc consts  --      0.0181                 0.0454                 0.1743
 IR Inten    --      0.2187                 0.5574                 1.1919

                      7                      8                      9
                      A                      A                      A
 Frequencies --    245.2095               279.4071               287.5492
 Red. masses --      4.7482                 3.1080                 3.1122
 Frc consts  --      0.1682                 0.1430                 0.1516
 IR Inten    --      3.4977                 1.6293                 0.6969

                     10                     11                     12
                      A                      A                      A
 Frequencies --    326.4963               407.9961               425.4205
 Red. masses --      2.7113                 4.9897                 4.2991
 Frc consts  --      0.1703                 0.4894                 0.4584
 IR Inten    --      1.8918                 0.4847                 0.0172

                     13                     14                     15
                      A                      A                      A
 Frequencies --    477.6607               513.4366               521.3942
 Red. masses --      3.3721                 3.2645                 2.8410
 Frc consts  --      0.4533                 0.5070                 0.4550
 IR Inten    --      5.1054                 7.7358                 2.0632

                     16                     17                     18
                      A                      A                      A
 Frequencies --    542.0751               658.7362               660.0474
 Red. masses --      3.1356                 3.5872                 4.2704
 Frc consts  --      0.5429                 0.9171                 1.0962
 IR Inten    --      3.0177                 7.8141                10.1489

                     19                     20                     21
                      A                      A                      A
 Frequencies --    770.1257               794.6942               805.7601
 Red. masses --      2.6524                 1.8478                10.1561
 Frc consts  --      0.9268                 0.6876                 3.8850
 IR Inten    --      8.1510                23.5177                19.6438

                     22                     23                     24
                      A                      A                      A
 Frequencies --    850.3177               877.4466               920.9081
 Red. masses --      2.6537                 1.4460                 2.3659
 Frc consts  --      1.1305                 0.6559                 1.1822
 IR Inten    --      4.3983                 1.9376                 1.9598

                     25                     26                     27
                      A                      A                      A
 Frequencies --    963.2819               964.7645               983.1228
 Red. masses --      1.5230                 2.5334                 1.6161
 Frc consts  --      0.8326                 1.3893                 0.9203
 IR Inten    --      7.3379                 7.0014                 5.9389

                     28                     29                     30
                      A                      A                      A
 Frequencies --    995.3576              1012.6730              1042.0373
 Red. masses --      1.3669                 7.7989                 2.2158
 Frc consts  --      0.7979                 4.7122                 1.4176
 IR Inten    --      0.0190                 2.3677                 9.3447

                     31                     32                     33
                      A                      A                      A
 Frequencies --   1071.2981              1096.9850              1141.5963
 Red. masses --      2.1126                 1.9473                 2.4626
 Frc consts  --      1.4286                 1.3806                 1.8909
 IR Inten    --     15.6990                 0.6758                10.1162

                     34                     35                     36
                      A                      A                      A
 Frequencies --   1156.7542              1173.3398              1207.0039
 Red. masses --      2.1304                 2.2990                 1.2420
 Frc consts  --      1.6795                 1.8648                 1.0661
 IR Inten    --      9.8083                34.5692                 2.3564

                     37                     38                     39
                      A                      A                      A
 Frequencies --   1237.0402              1275.1721              1286.4901
 Red. masses --      2.9025                 1.9805                 1.3019
 Frc consts  --      2.6169                 1.8974                 1.2695
 IR Inten    --     15.4593                 8.3831                43.0711

                     40                     41                     42
                      A                      A                      A
 Frequencies --   1289.7456              1310.6840              1337.0511
 Red. masses --      1.5638                 1.1845                 1.5869
 Frc consts  --      1.5327                 1.1988                 1.6715
 IR Inten    --      6.2132                33.7204                39.4102

                     43                     44                     45
                      A                      A                      A
 Frequencies --   1355.8051              1374.9564              1391.7651
 Red. masses --      1.3092                 1.3749                 1.4425
 Frc consts  --      1.4179                 1.5315                 1.6463
 IR Inten    --      0.6755                 7.2198                17.4697

                     46                     47                     48
                      A                      A                      A
 Frequencies --   1395.7303              1403.0161              1431.4349
 Red. masses --      1.4616                 1.3871                 4.0253
 Frc consts  --      1.6776                 1.6088                 4.8594
 IR Inten    --     34.5157               112.8731                 0.9089

                     49                     50                     51
                      A                      A                      A
 Frequencies --   1436.3427              1498.0750              1504.8529
 Red. masses --      1.8323                 1.0799                 1.1182
 Frc consts  --      2.2272                 1.4279                 1.4919
 IR Inten    --     31.0773                 6.8082                53.2747

                     52                     53                     54
                      A                      A                      A
 Frequencies --   1516.2302              1522.9480              1531.3281
 Red. masses --      1.0966                 1.0951                 1.1442
 Frc consts  --      1.4853                 1.4964                 1.5808
 IR Inten    --     15.7648                 2.0353                72.1329

                     55                     56                     57
                      A                      A                      A
 Frequencies --   1565.7940              1569.4317              1645.1064
 Red. masses --      5.4715                 5.2017                 6.4100
 Frc consts  --      7.9037                 7.5489                10.2211
 IR Inten    --    401.3856               231.6907               450.0062

                     58                     59                     60
                      A                      A                      A
 Frequencies --   3018.7722              3025.5953              3044.0843
 Red. masses --      1.0744                 1.0699                 1.0651
 Frc consts  --      5.7689                 5.7707                 5.8153
 IR Inten    --     38.2968                34.8596                22.1680

                     61                     62                     63
                      A                      A                      A
 Frequencies --   3050.8538              3053.9199              3085.6762
 Red. masses --      1.0639                 1.0644                 1.0969
 Frc consts  --      5.8346                 5.8487                 6.1533
 IR Inten    --     43.7877                44.6665                 9.8217

                     64                     65                     66
                      A                      A                      A
 Frequencies --   3088.0943              3101.2570              3106.3067
 Red. masses --      1.0974                 1.0995                 1.1042
 Frc consts  --      6.1661                 6.2303                 6.2774
 IR Inten    --     18.9883                38.3274                79.2236

                     67                     68                     69
                      A                      A                      A
 Frequencies --   3172.2380              3174.6631              3176.1210
 Red. masses --      1.0911                 1.0919                 1.0925
 Frc consts  --      6.4689                 6.4837                 6.4935
 IR Inten    --      4.4284                12.6479                11.9888

 - Thermochemistry -
 -------------------
 Temperature   298.150 Kelvin.  Pressure   1.00000 Atm.
 Atom     1 has atomic number 35 and mass  78.91834

 Molecular mass:   241.02146 amu.
 Principal axes and moments of inertia in atomic units:
                           1         2         3
     Eigenvalues --   785.886088365.697738874.79797
           X            0.99999   0.00021   0.00507
           Y           -0.00022   1.00000   0.00099
           Z           -0.00507  -0.00099   0.99999
 This molecule is an asymmetric top.
 Rotational symmetry number  1.
 Warning -- assumption of classical behavior for rotation
           may cause significant error
 Rotational temperatures (Kelvin)      0.11021     0.01035     0.00976
 Rotational constants (GHZ):           2.29644     0.21573     0.20336
 Zero-point vibrational energy     543092.4 (Joules/Mol)
                                  129.80220 (Kcal/Mol)
 Warning -- explicit consideration of  16 degrees of freedom as
           vibrations may cause significant error
 Vibrational temperatures:     36.87    90.72   131.31   145.24   197.71
          (Kelvin)            331.17   352.80   402.00   413.72   469.76
                              587.02   612.09   687.25   738.72   750.17
                              779.93   947.77   949.66  1108.04  1143.39
                             1159.31  1223.42  1262.45  1324.98  1385.95
                             1388.08  1414.49  1432.10  1457.01  1499.26
                             1541.36  1578.32  1642.50  1664.31  1688.17
                             1736.61  1779.82  1834.69  1850.97  1855.66
                             1885.78  1923.72  1950.70  1978.26  2002.44
                             2008.14  2018.63  2059.52  2066.58  2155.40
                             2165.15  2181.52  2191.18  2203.24  2252.83
                             2258.06  2366.94  4343.34  4353.16  4379.76
                             4389.50  4393.91  4439.60  4443.08  4462.02
                             4469.28  4564.14  4567.63  4569.73

 Zero-point correction=                           0.206853 (Hartree/Particle)
 Thermal correction to Energy=                    0.218447
 Thermal correction to Enthalpy=                  0.219391
 Thermal correction to Gibbs Free Energy=         0.166869
 Sum of electronic and zero-point Energies=          -3086.009943
 Sum of electronic and thermal Energies=             -3085.998349
 Sum of electronic and thermal Enthalpies=           -3085.997405
 Sum of electronic and thermal Free Energies=        -3086.049926

                     E (Thermal)             CV                S
                      KCal/Mol        Cal/Mol-Kelvin    Cal/Mol-Kelvin
 Total                  137.077             43.474            110.541
 Electronic               0.000              0.000              0.000
 Translational            0.889              2.981             42.340
 Rotational               0.889              2.981             32.434
 Vibrational            135.300             37.512             35.767
 Vibration     1          0.593              1.985              6.142
 Vibration     2          0.597              1.972              4.359
 Vibration     3          0.602              1.955              3.633
 Vibration     4          0.604              1.948              3.436
 Vibration     5          0.614              1.916              2.840
 Vibration     6          0.652              1.795              1.878
 Vibration     7          0.660              1.771              1.765
 Vibration     8          0.680              1.712              1.537
 Vibration     9          0.685              1.697              1.488
 Vibration    10          0.710              1.623              1.277
 Vibration    11          0.773              1.453              0.934
 Vibration    12          0.787              1.415              0.874
 Vibration    13          0.834              1.300              0.716
 Vibration    14          0.869              1.220              0.625
 Vibration    15          0.876              1.203              0.607
 Vibration    16          0.897              1.157              0.561

                           ! Non-Optimized Parameters !
 Normal termination of Gaussian 16 at Tue Sep 17 10:03:55 2024.

 ----------------------------------------------------------------------
 #p M062X/def2tzvp geom=check guess=read scf(xqc,tight) integral(grid=u
 ltrafine) scrf(SMD, solvent=1,4-Dioxane) polar prop=efg volume
 ----------------------------------------------------------------------

 ---
 spe
 ---
 Structure from the checkpoint file:  "smiles_00011_conf_2.chk"
 Charge =  0 Multiplicity = 1

 SCF Done:  E(RM062X) =  -3088.61961814     A.U. after   12 cycles

  Exact polarizability:     252.603      -1.034     152.780      -6.137      -2.156     110.288
 Approx polarizability:     229.647      -0.809     175.908      -9.214      -3.954     132.047

 Normal termination of Gaussian 16 at Tue Sep 17 11:10:39 2024.
 Gaussian 16:  ES64L-G16RevC.02  7-Dec-2021

 ----------------------------------------------------------------------
 #p M062X/def2tzvp geom=check guess=read scf(xqc,tight) integral(grid=u
 ltrafine) scrf(SMD, solvent=1,4-Dioxane) nmr=giao
 ----------------------------------------------------------------------

 ---
 spe
 ---
 Structure from the checkpoint file:  "smiles_00011_conf_2.chk"
 Charge =  0 Multiplicity = 1

                         Standard orientation:
 ---------------------------------------------------------------------
 Center     Atomic      Atomic             Coordinates (Angstroms)
 Number     Number       Type             X           Y           Z
 ---------------------------------------------------------------------
      1         35           0       -3.876124    0.007625    0.149456
      2          6           0       -1.982188   -0.006619   -0.019823
      3          6           0       -1.258473    1.172440   -0.197102
      4          7           0        0.063142    1.179370   -0.317919
      5          6           0        0.687672   -0.023130   -0.261885
      6          7           0        2.041780   -0.047460   -0.368041
      7          6           0        2.759758   -1.325973   -0.309504
      8          6           0        4.260434   -1.083970   -0.111055
      9          6           0        4.484861   -0.000772    0.949281
     10          6           0        3.884704    1.351585    0.491747
     11          6           0        2.831361    1.155778   -0.611953
     12          7           0        0.068068   -1.218980   -0.103193
     13          6           0       -1.255372   -1.193995    0.019861
     14          1           0       -1.766145    2.133460   -0.241532
     15          1           0        2.358863   -1.903581    0.528260
     16          1           0        2.566011   -1.915394   -1.215761
     17          1           0        4.726523   -2.028682    0.185886
     18          1           0        4.732538   -0.788142   -1.055548
     19          1           0        4.000826   -0.323491    1.878647
     20          1           0        5.550497    0.106062    1.173917
     21          1           0        4.668196    2.012346    0.104064
     22          1           0        3.429393    1.864812    1.344436
     23          1           0        3.321886    1.062704   -1.590199
     24          1           0        2.147440    1.999650   -0.666867
     25          1           0       -1.759139   -2.149208    0.150407
 ---------------------------------------------------------------------

 SCF Done:  E(RM062X) =  -3088.61961814     A.U. after    1 cycles

      1  Br   Isotropic =  2243.7379   Anisotropy =  1108.2260

      2  C    Isotropic =    47.8445   Anisotropy =   107.7751

      3  C    Isotropic =     1.6972   Anisotropy =   189.5228

      4  N    Isotropic =   -52.9884   Anisotropy =   465.8528

      5  C    Isotropic =     4.5913   Anisotropy =   157.9420

      6  N    Isotropic =   143.1637   Anisotropy =   102.6729

      7  C    Isotropic =   137.5976   Anisotropy =    19.8017

      8  C    Isotropic =   163.6420   Anisotropy =     5.9254

      9  C    Isotropic =   165.7055   Anisotropy =     7.0362

     10  C    Isotropic =   162.5925   Anisotropy =    14.3607

     11  C    Isotropic =   147.7052   Anisotropy =    33.9727

     12  N    Isotropic =   -54.2667   Anisotropy =   467.1515

     13  C    Isotropic =     0.9656   Anisotropy =   190.8337

     14  H    Isotropic =    22.8869   Anisotropy =    10.5893

     15  H    Isotropic =    28.1852   Anisotropy =     7.5345

     16  H    Isotropic =    28.5056   Anisotropy =     8.9360

     17  H    Isotropic =    30.1992   Anisotropy =    10.6949

     18  H    Isotropic =    30.0058   Anisotropy =     8.6261

     19  H    Isotropic =    30.5731   Anisotropy =     8.7412

     20  H    Isotropic =    30.1208   Anisotropy =    10.5230

     21  H    Isotropic =    30.2806   Anisotropy =    10.4568

     22  H    Isotropic =    29.9844   Anisotropy =     8.9814

     23  H    Isotropic =    28.8346   Anisotropy =     9.1044

     24  H    Isotropic =    26.9275   Anisotropy =     8.7360

     25  H    Isotropic =    22.8209   Anisotropy =    10.7185

 The electronic state is 1-A.
 Alpha  occ. eigenvalues -- -485.37930 -63.36402 -57.18352 -57.18108 -57.18105
 Alpha  occ. eigenvalues --  -14.77208 -14.75417 -14.75305 -10.64764 -10.60014
 Alpha  occ. eigenvalues --  -10.59962 -10.59369 -10.56552 -10.56344 -10.53439
 Alpha  occ. eigenvalues --  -10.53124 -10.53091  -9.03049  -6.85472  -6.84568
 Alpha  occ. eigenvalues --   -6.84557  -2.88849  -2.88513  -2.88510  -2.87660
 Alpha  occ. eigenvalues --   -2.87660  -1.12202  -1.04361  -0.99911  -0.92985
 Alpha  occ. eigenvalues --   -0.89470  -0.85522  -0.83103  -0.76187  -0.75839
 Alpha  occ. eigenvalues --   -0.71437  -0.69817  -0.63956  -0.60550  -0.60165
 Alpha  occ. eigenvalues --   -0.56972  -0.54624  -0.52830  -0.50921  -0.49301
 Alpha  occ. eigenvalues --   -0.48907  -0.48118  -0.47521  -0.46844  -0.44202
 Alpha  occ. eigenvalues --   -0.42804  -0.41806  -0.39138  -0.38790  -0.38440
 Alpha  occ. eigenvalues --   -0.38296  -0.37426  -0.36173  -0.33674  -0.31728
 Alpha  occ. eigenvalues --   -0.26049
 Alpha virt. eigenvalues --   -0.01222   0.02251   0.03822   0.06387   0.09465
 Alpha virt. eigenvalues --    0.09749   0.10159   0.11680   0.11797   0.12409
 Alpha virt. eigenvalues --    0.13031   0.14195   0.14808   0.15588   0.16402

 Mulliken charges:
               1
     1  Br  -0.107072
     2  C   -0.009118
     3  C   -0.065959
     4  N   -0.340641
     5  C    0.423848
     6  N   -0.119267
     7  C   -0.212050
     8  C   -0.289413
     9  C   -0.300094
    10  C   -0.239166
    11  C   -0.294964
    12  N   -0.335039
    13  C   -0.068415
    14  H    0.178656
    15  H    0.170042
    16  H    0.153109
    17  H    0.156958
    18  H    0.160414
    19  H    0.153663
    20  H    0.152058
    21  H    0.140940
    22  H    0.149096
    23  H    0.173469
    24  H    0.190894
    25  H    0.178050
 Sum of Mulliken charges =  -0.00000

 Dipole moment (field-independent basis, Debye):
    X=              2.9881    Y=              0.0036    Z=             -0.0566  Tot=              2.9887
 Quadrupole moment (field-independent basis, Debye-Ang):
   XX=            -81.9098   YY=            -88.8765   ZZ=            -91.0899
   XY=             -0.3514   XZ=             -0.7366   YZ=             -0.4444

 Normal termination of Gaussian 16 at Tue Sep 17 11:34:52 2024.
