 Gaussian 16, Revision C.02,

 ----------------------------------------------------------------------
 #p B3LYP/6-31G(d,p) EmpiricalDispersion=GD3BJ opt freq scf(xqc,tight)
 integral(grid=ultrafine)
 ----------------------------------------------------------------------

 ----------------------------------
 opt-freq conformers_unique/conf_ad
 ----------------------------------
 Symbolic Z-matrix:
 Charge =  0 Multiplicity = 1

 SCF Done:  E(RB3LYP) =  -3086.21407048     A.U. after   14 cycles
 SCF Done:  E(RB3LYP) =  -3086.21643610     A.U. after   12 cycles
 SCF Done:  E(RB3LYP) =  -3086.21659933     A.U. after   11 cycles
 SCF Done:  E(RB3LYP) =  -3086.21661549     A.U. after    8 cycles
 SCF Done:  E(RB3LYP) =  -3086.21662900     A.U. after    9 cycles
 SCF Done:  E(RB3LYP) =  -3086.21664037     A.U. after    9 cycles
 SCF Done:  E(RB3LYP) =  -3086.21664267     A.U. after    9 cycles
 SCF Done:  E(RB3LYP) =  -3086.21665704     A.U. after    9 cycles
 SCF Done:  E(RB3LYP) =  -3086.21668745     A.U. after   11 cycles
 SCF Done:  E(RB3LYP) =  -3086.21669322     A.U. after    9 cycles
 SCF Done:  E(RB3LYP) =  -3086.21676756     A.U. after   11 cycles
 SCF Done:  E(RB3LYP) =  -3086.21678156     A.U. after   11 cycles
 SCF Done:  E(RB3LYP) =  -3086.21679266     A.U. after   10 cycles
 SCF Done:  E(RB3LYP) =  -3086.21679500     A.U. after    9 cycles
 SCF Done:  E(RB3LYP) =  -3086.21679535     A.U. after    9 cycles
 SCF Done:  E(RB3LYP) =  -3086.21679547     A.U. after    7 cycles
 SCF Done:  E(RB3LYP) =  -3086.21679548     A.U. after    6 cycles
 Optimization completed.
    -- Stationary point found.
 Normal termination of Gaussian 16 at Tue Sep 17 10:01:31 2024.

 ----------------------------------------------------------------------
 #P Geom=AllCheck Guess=TCheck SCRF=Check GenChk RB3LYP/6-31G(d,p) Freq
 ----------------------------------------------------------------------

 Structure from the checkpoint file:  "smiles_00011_conf_3.chk"
 ----------------------------------
 opt-freq conformers_unique/conf_ad
 ----------------------------------
 Charge =  0 Multiplicity = 1

 SCF Done:  E(RB3LYP) =  -3086.21679548     A.U. after    1 cycles

                      1                      2                      3
                      A                      A                      A
 Frequencies --     25.6297                63.0806                91.2378
 Red. masses --      3.8044                 3.4186                 4.4509
 Frc consts  --      0.0015                 0.0080                 0.0218
 IR Inten    --      0.1826                 0.6454                 0.0240

                      4                      5                      6
                      A                      A                      A
 Frequencies --    100.9451               137.4417               230.1812
 Red. masses --      3.0083                 4.0776                 5.5824
 Frc consts  --      0.0181                 0.0454                 0.1743
 IR Inten    --      0.2180                 0.5566                 1.1917

                      7                      8                      9
                      A                      A                      A
 Frequencies --    245.2022               279.4286               287.5840
 Red. masses --      4.7496                 3.1183                 3.1024
 Frc consts  --      0.1683                 0.1435                 0.1512
 IR Inten    --      3.4978                 1.6319                 0.6941

                     10                     11                     12
                      A                      A                      A
 Frequencies --    326.4538               407.9932               425.4238
 Red. masses --      2.7108                 4.9886                 4.2990
 Frc consts  --      0.1702                 0.4893                 0.4584
 IR Inten    --      1.8884                 0.4846                 0.0172

                     13                     14                     15
                      A                      A                      A
 Frequencies --    477.6524               513.4419               521.3868
 Red. masses --      3.3735                 3.2629                 2.8403
 Frc consts  --      0.4535                 0.5068                 0.4549
 IR Inten    --      5.1086                 7.7280                 2.0611

                     16                     17                     18
                      A                      A                      A
 Frequencies --    542.0742               658.7573               660.0541
 Red. masses --      3.1383                 3.6232                 4.2201
 Frc consts  --      0.5433                 0.9264                 1.0832
 IR Inten    --      3.0266                 7.7478                10.2075

                     19                     20                     21
                      A                      A                      A
 Frequencies --    770.1231               794.7072               805.7617
 Red. masses --      2.6513                 1.8480                10.1555
 Frc consts  --      0.9265                 0.6876                 3.8848
 IR Inten    --      8.1448                23.5335                19.6431

                     22                     23                     24
                      A                      A                      A
 Frequencies --    850.3538               877.4507               920.9188
 Red. masses --      2.6529                 1.4463                 2.3659
 Frc consts  --      1.1303                 0.6561                 1.1822
 IR Inten    --      4.3910                 1.9382                 1.9598

                     25                     26                     27
                      A                      A                      A
 Frequencies --    963.2768               964.7719               983.1073
 Red. masses --      1.5229                 2.5329                 1.6163
 Frc consts  --      0.8326                 1.3891                 0.9204
 IR Inten    --      7.3372                 6.9895                 5.9466

                     28                     29                     30
                      A                      A                      A
 Frequencies --    995.3520              1012.6733              1042.0522
 Red. masses --      1.3669                 7.7990                 2.2157
 Frc consts  --      0.7979                 4.7122                 1.4176
 IR Inten    --      0.0190                 2.3679                 9.3462

                     31                     32                     33
                      A                      A                      A
 Frequencies --   1071.2950              1096.9982              1141.6037
 Red. masses --      2.1127                 1.9468                 2.4626
 Frc consts  --      1.4286                 1.3803                 1.8909
 IR Inten    --     15.7022                 0.6779                10.1177

                     34                     35                     36
                      A                      A                      A
 Frequencies --   1156.7524              1173.3425              1207.0080
 Red. masses --      2.1305                 2.2988                 1.2421
 Frc consts  --      1.6796                 1.8647                 1.0661
 IR Inten    --      9.7945                34.5627                 2.3586

                     37                     38                     39
                      A                      A                      A
 Frequencies --   1237.0389              1275.1757              1286.5108
 Red. masses --      2.9026                 1.9821                 1.3014
 Frc consts  --      2.6170                 1.8989                 1.2691
 IR Inten    --     15.4616                 8.3593                43.0999

                     40                     41                     42
                      A                      A                      A
 Frequencies --   1289.7511              1310.6910              1337.0538
 Red. masses --      1.5636                 1.1845                 1.5869
 Frc consts  --      1.5325                 1.1990                 1.6715
 IR Inten    --      6.1743                33.7455                39.4208

                     43                     44                     45
                      A                      A                      A
 Frequencies --   1355.8081              1374.9715              1391.7677
 Red. masses --      1.3092                 1.3751                 1.4425
 Frc consts  --      1.4179                 1.5317                 1.6463
 IR Inten    --      0.6745                 7.2116                17.4381

                     46                     47                     48
                      A                      A                      A
 Frequencies --   1395.7364              1403.0226              1431.4232
 Red. masses --      1.4618                 1.3870                 4.0246
 Frc consts  --      1.6778                 1.6086                 4.8586
 IR Inten    --     34.6754               112.7403                 0.9107

                     49                     50                     51
                      A                      A                      A
 Frequencies --   1436.3414              1498.0867              1504.8560
 Red. masses --      1.8323                 1.0799                 1.1182
 Frc consts  --      2.2272                 1.4279                 1.4920
 IR Inten    --     31.0767                 6.8383                53.2904

                     52                     53                     54
                      A                      A                      A
 Frequencies --   1516.2339              1522.9477              1531.3281
 Red. masses --      1.0966                 1.0951                 1.1442
 Frc consts  --      1.4853                 1.4964                 1.5808
 IR Inten    --     15.7560                 2.0345                72.1344

                     55                     56                     57
                      A                      A                      A
 Frequencies --   1565.7859              1569.4236              1645.0959
 Red. masses --      5.4616                 5.2091                 6.4097
 Frc consts  --      7.8892                 7.5595                10.2205
 IR Inten    --    402.7715               230.3253               449.9252

                     58                     59                     60
                      A                      A                      A
 Frequencies --   3018.7603              3025.6492              3044.0626
 Red. masses --      1.0744                 1.0699                 1.0652
 Frc consts  --      5.7689                 5.7708                 5.8153
 IR Inten    --     38.2908                34.8367                22.1419

                     61                     62                     63
                      A                      A                      A
 Frequencies --   3050.8474              3053.8954              3085.6664
 Red. masses --      1.0639                 1.0644                 1.0969
 Frc consts  --      5.8345                 5.8486                 6.1533
 IR Inten    --     43.8292                44.6389                 9.8500

                     64                     65                     66
                      A                      A                      A
 Frequencies --   3088.1049              3101.2509              3106.2936
 Red. masses --      1.0974                 1.0995                 1.1042
 Frc consts  --      6.1661                 6.2303                 6.2773
 IR Inten    --     19.0165                38.3577                79.1825

                     67                     68                     69
                      A                      A                      A
 Frequencies --   3172.2805              3174.6806              3176.1395
 Red. masses --      1.0911                 1.0919                 1.0925
 Frc consts  --      6.4691                 6.4837                 6.4936
 IR Inten    --      4.4405                12.6357                11.9884

 - Thermochemistry -
 -------------------
 Temperature   298.150 Kelvin.  Pressure   1.00000 Atm.
 Atom     1 has atomic number 35 and mass  78.91834

 Molecular mass:   241.02146 amu.
 Principal axes and moments of inertia in atomic units:
                           1         2         3
     Eigenvalues --   785.918638365.571918874.63602
           X            0.99999   0.00021   0.00508
           Y           -0.00022   1.00000   0.00099
           Z           -0.00508  -0.00099   0.99999
 This molecule is an asymmetric top.
 Rotational symmetry number  1.
 Warning -- assumption of classical behavior for rotation
           may cause significant error
 Rotational temperatures (Kelvin)      0.11021     0.01035     0.00976
 Rotational constants (GHZ):           2.29635     0.21573     0.20336
 Zero-point vibrational energy     543093.8 (Joules/Mol)
                                  129.80254 (Kcal/Mol)
 Warning -- explicit consideration of  16 degrees of freedom as
           vibrations may cause significant error
 Vibrational temperatures:     36.88    90.76   131.27   145.24   197.75
          (Kelvin)            331.18   352.79   402.04   413.77   469.69
                              587.01   612.09   687.24   738.73   750.16
                              779.92   947.80   949.67  1108.04  1143.41
                             1159.31  1223.47  1262.46  1325.00  1385.94
                             1388.09  1414.47  1432.09  1457.01  1499.28
                             1541.35  1578.34  1642.51  1664.31  1688.18
                             1736.62  1779.82  1834.69  1851.00  1855.66
                             1885.79  1923.72  1950.71  1978.28  2002.44
                             2008.15  2018.64  2059.50  2066.57  2155.41
                             2165.15  2181.52  2191.18  2203.24  2252.82
                             2258.05  2366.93  4343.32  4353.23  4379.73
                             4389.49  4393.87  4439.59  4443.09  4462.01
                             4469.26  4564.20  4567.66  4569.76

 Zero-point correction=                           0.206854 (Hartree/Particle)
 Thermal correction to Energy=                    0.218447
 Thermal correction to Enthalpy=                  0.219391
 Thermal correction to Gibbs Free Energy=         0.166870
 Sum of electronic and zero-point Energies=          -3086.009942
 Sum of electronic and thermal Energies=             -3085.998348
 Sum of electronic and thermal Enthalpies=           -3085.997404
 Sum of electronic and thermal Free Energies=        -3086.049925

                     E (Thermal)             CV                S
                      KCal/Mol        Cal/Mol-Kelvin    Cal/Mol-Kelvin
 Total                  137.078             43.473            110.540
 Electronic               0.000              0.000              0.000
 Translational            0.889              2.981             42.340
 Rotational               0.889              2.981             32.434
 Vibrational            135.300             37.512             35.766
 Vibration     1          0.593              1.985              6.142
 Vibration     2          0.597              1.972              4.358
 Vibration     3          0.602              1.955              3.633
 Vibration     4          0.604              1.948              3.436
 Vibration     5          0.614              1.916              2.839
 Vibration     6          0.652              1.795              1.878
 Vibration     7          0.660              1.771              1.765
 Vibration     8          0.680              1.712              1.537
 Vibration     9          0.685              1.697              1.488
 Vibration    10          0.710              1.623              1.278
 Vibration    11          0.773              1.453              0.934
 Vibration    12          0.787              1.415              0.874
 Vibration    13          0.834              1.300              0.716
 Vibration    14          0.869              1.220              0.625
 Vibration    15          0.876              1.203              0.607
 Vibration    16          0.897              1.157              0.561

 Optimization completed.
    -- Stationary point found.
 Normal termination of Gaussian 16 at Tue Sep 17 10:04:20 2024.

 ----------------------------------------------------------------------
 #p M062X/def2tzvp geom=check guess=read scf(xqc,tight) integral(grid=u
 ltrafine) scrf(SMD, solvent=1,4-Dioxane) polar prop=efg volume
 ----------------------------------------------------------------------

 ---
 spe
 ---
 Structure from the checkpoint file:  "smiles_00011_conf_3.chk"
 Charge =  0 Multiplicity = 1

 SCF Done:  E(RM062X) =  -3088.61961885     A.U. after   12 cycles

  Exact polarizability:     252.601      -1.033     152.780      -6.139      -2.154     110.289
 Approx polarizability:     229.647      -0.808     175.908      -9.218      -3.951     132.047

 Normal termination of Gaussian 16 at Tue Sep 17 11:09:57 2024.
 Gaussian 16:  ES64L-G16RevC.02  7-Dec-2021

 ----------------------------------------------------------------------
 #p M062X/def2tzvp geom=check guess=read scf(xqc,tight) integral(grid=u
 ltrafine) scrf(SMD, solvent=1,4-Dioxane) nmr=giao
 ----------------------------------------------------------------------

 ---
 spe
 ---
 Structure from the checkpoint file:  "smiles_00011_conf_3.chk"
 Charge =  0 Multiplicity = 1

                         Standard orientation:
 ---------------------------------------------------------------------
 Center     Atomic      Atomic             Coordinates (Angstroms)
 Number     Number       Type             X           Y           Z
 ---------------------------------------------------------------------
      1         35           0       -3.876103    0.007594    0.149472
      2          6           0       -1.982173   -0.006601   -0.019822
      3          6           0       -1.255323   -1.193951    0.019764
      4          7           0        0.068124   -1.218898   -0.103314
      5          6           0        0.687700   -0.023033   -0.261941
      6          7           0        2.041799   -0.047415   -0.368282
      7          6           0        2.759698   -1.325962   -0.309614
      8          6           0        4.260343   -1.084031   -0.110901
      9          6           0        4.484522   -0.000913    0.949545
     10          6           0        3.884884    1.351503    0.491665
     11          6           0        2.831466    1.155805   -0.612013
     12          7           0        0.063131    1.179466   -0.317824
     13          6           0       -1.258482    1.172491   -0.196988
     14          1           0       -1.759047   -2.149189    0.150276
     15          1           0        2.358607   -1.903518    0.528097
     16          1           0        2.566052   -1.915360   -1.215899
     17          1           0        4.726371   -2.028775    0.186035
     18          1           0        4.732605   -0.788125   -1.055292
     19          1           0        3.999908   -0.323518    1.878654
     20          1           0        5.550052    0.105724    1.174773
     21          1           0        4.668640    2.011815    0.103745
     22          1           0        3.429865    1.865181    1.344236
     23          1           0        3.321951    1.062838   -1.590290
     24          1           0        2.147580    1.999706   -0.666811
     25          1           0       -1.766177    2.133504   -0.241280
 ---------------------------------------------------------------------

 SCF Done:  E(RM062X) =  -3088.61961885     A.U. after    1 cycles

      1  Br   Isotropic =  2243.7438   Anisotropy =  1108.2144

      2  C    Isotropic =    47.8455   Anisotropy =   107.7758

      3  C    Isotropic =     0.9659   Anisotropy =   190.8343

      4  N    Isotropic =   -54.2711   Anisotropy =   467.1521

      5  C    Isotropic =     4.5898   Anisotropy =   157.9422

      6  N    Isotropic =   143.1669   Anisotropy =   102.6811

      7  C    Isotropic =   137.5939   Anisotropy =    19.7914

      8  C    Isotropic =   163.6404   Anisotropy =     5.9138

      9  C    Isotropic =   165.7017   Anisotropy =     7.0342

     10  C    Isotropic =   162.5918   Anisotropy =    14.3606

     11  C    Isotropic =   147.7083   Anisotropy =    33.9768

     12  N    Isotropic =   -52.9885   Anisotropy =   465.8558

     13  C    Isotropic =     1.6969   Anisotropy =   189.5230

     14  H    Isotropic =    22.8210   Anisotropy =    10.7186

     15  H    Isotropic =    28.1849   Anisotropy =     7.5337

     16  H    Isotropic =    28.5057   Anisotropy =     8.9368

     17  H    Isotropic =    30.1991   Anisotropy =    10.6952

     18  H    Isotropic =    30.0062   Anisotropy =     8.6257

     19  H    Isotropic =    30.5736   Anisotropy =     8.7395

     20  H    Isotropic =    30.1209   Anisotropy =    10.5231

     21  H    Isotropic =    30.2807   Anisotropy =    10.4560

     22  H    Isotropic =    29.9841   Anisotropy =     8.9830

     23  H    Isotropic =    28.8345   Anisotropy =     9.1055

     24  H    Isotropic =    26.9278   Anisotropy =     8.7352

     25  H    Isotropic =    22.8869   Anisotropy =    10.5894

 The electronic state is 1-A.
 Alpha  occ. eigenvalues -- -485.37930 -63.36403 -57.18353 -57.18108 -57.18105
 Alpha  occ. eigenvalues --  -14.77208 -14.75417 -14.75305 -10.64764 -10.60014
 Alpha  occ. eigenvalues --  -10.59962 -10.59368 -10.56551 -10.56345 -10.53439
 Alpha  occ. eigenvalues --  -10.53124 -10.53091  -9.03049  -6.85472  -6.84568
 Alpha  occ. eigenvalues --   -6.84557  -2.88849  -2.88513  -2.88510  -2.87660
 Alpha  occ. eigenvalues --   -2.87660  -1.12202  -1.04361  -0.99911  -0.92985
 Alpha  occ. eigenvalues --   -0.89471  -0.85522  -0.83103  -0.76188  -0.75839
 Alpha  occ. eigenvalues --   -0.71437  -0.69817  -0.63956  -0.60550  -0.60165
 Alpha  occ. eigenvalues --   -0.56972  -0.54624  -0.52829  -0.50921  -0.49301
 Alpha  occ. eigenvalues --   -0.48907  -0.48118  -0.47521  -0.46843  -0.44202
 Alpha  occ. eigenvalues --   -0.42804  -0.41806  -0.39138  -0.38790  -0.38440
 Alpha  occ. eigenvalues --   -0.38296  -0.37426  -0.36173  -0.33674  -0.31728
 Alpha  occ. eigenvalues --   -0.26049
 Alpha virt. eigenvalues --   -0.01222   0.02251   0.03822   0.06387   0.09465
 Alpha virt. eigenvalues --    0.09748   0.10159   0.11680   0.11797   0.12409
 Alpha virt. eigenvalues --    0.13031   0.14195   0.14808   0.15587   0.16402

 Mulliken charges:
               1
     1  Br  -0.107068
     2  C   -0.009119
     3  C   -0.068413
     4  N   -0.335045
     5  C    0.423856
     6  N   -0.119282
     7  C   -0.212076
     8  C   -0.289400
     9  C   -0.300092
    10  C   -0.239169
    11  C   -0.294974
    12  N   -0.340638
    13  C   -0.065954
    14  H    0.178048
    15  H    0.170057
    16  H    0.153109
    17  H    0.156957
    18  H    0.160414
    19  H    0.153669
    20  H    0.152058
    21  H    0.140952
    22  H    0.149095
    23  H    0.173472
    24  H    0.190887
    25  H    0.178656
 Sum of Mulliken charges =  -0.00000

 Dipole moment (field-independent basis, Debye):
    X=              2.9881    Y=              0.0036    Z=             -0.0562  Tot=              2.9886
 Quadrupole moment (field-independent basis, Debye-Ang):
   XX=            -81.9095   YY=            -88.8768   ZZ=            -91.0899
   XY=             -0.3512   XZ=             -0.7360   YZ=             -0.4442

 Normal termination of Gaussian 16 at Tue Sep 17 11:33:59 2024.
