 Gaussian 16, Revision C.02,

 ----------------------------------------------------------------------
 #p B3LYP/6-31G(d,p) EmpiricalDispersion=GD3BJ opt freq scf(xqc,tight)
 integral(grid=ultrafine)
 ----------------------------------------------------------------------

 ----------------------------------
 opt-freq conformers_unique/conf_aa
 ----------------------------------
 Symbolic Z-matrix:
 Charge =  0 Multiplicity = 1

 SCF Done:  E(RB3LYP) =  -2874.77917345     A.U. after   14 cycles
 SCF Done:  E(RB3LYP) =  -2874.78059847     A.U. after   11 cycles
 SCF Done:  E(RB3LYP) =  -2874.78065541     A.U. after    9 cycles
 SCF Done:  E(RB3LYP) =  -2874.78066015     A.U. after    8 cycles
 SCF Done:  E(RB3LYP) =  -2874.78066172     A.U. after    7 cycles
 Optimization completed.
    -- Stationary point found.
 Normal termination of Gaussian 16 at Tue Sep 17 09:52:04 2024.

 ----------------------------------------------------------------------
 #P Geom=AllCheck Guess=TCheck SCRF=Check GenChk RB3LYP/6-31G(d,p) Freq
 ----------------------------------------------------------------------

 Structure from the checkpoint file:  "smiles_00024_conf_0.chk"
 ----------------------------------
 opt-freq conformers_unique/conf_aa
 ----------------------------------
 Charge =  0 Multiplicity = 1

 SCF Done:  E(RB3LYP) =  -2874.78066172     A.U. after    1 cycles
 ******    1 imaginary frequencies (negative Signs) ******

                      1                      2                      3
                      A                      A                      A
 Frequencies --    -21.2522                96.6545               210.5154
 Red. masses --      1.0423                 4.1021                 5.1655
 Frc consts  --      0.0003                 0.0226                 0.1349
 IR Inten    --      0.3897                 0.1947                 0.0432

                      4                      5                      6
                      A                      A                      A
 Frequencies --    301.0550               304.9129               386.0149
 Red. masses --      8.0771                 7.6388                 2.9082
 Frc consts  --      0.4313                 0.4184                 0.2553
 IR Inten    --      3.6007                 3.8296                 7.3360

                      7                      8                      9
                      A                      A                      A
 Frequencies --    418.4750               478.4213               645.1201
 Red. masses --      4.1563                 2.7040                 5.9687
 Frc consts  --      0.4288                 0.3646                 1.4636
 IR Inten    --      0.1102                 1.2176                 1.4123

                     10                     11                     12
                      A                      A                      A
 Frequencies --    650.0445               763.5327               845.9786
 Red. masses --      8.8630                 3.3297                 5.6460
 Frc consts  --      2.2066                 1.1437                 2.3807
 IR Inten    --      9.9399                 9.9925                 4.7943

                     13                     14                     15
                      A                      A                      A
 Frequencies --    950.9389               991.7707              1014.3310
 Red. masses --      1.5761                 1.3741                 1.5101
 Frc consts  --      0.8397                 0.7963                 0.9154
 IR Inten    --      2.5481                 0.0132                 0.5547

                     16                     17                     18
                      A                      A                      A
 Frequencies --   1026.3476              1071.3124              1140.2367
 Red. masses --      8.2211                 1.6596                 2.6073
 Frc consts  --      5.1024                 1.1222                 1.9972
 IR Inten    --     50.1194                15.5489                29.0422

                     19                     20                     21
                      A                      A                      A
 Frequencies --   1244.2745              1296.9507              1315.7982
 Red. masses --      8.4107                 1.7325                 2.4344
 Frc consts  --      7.6721                 1.7170                 2.4832
 IR Inten    --      1.3992                 7.8445                12.3610

                     22                     23                     24
                      A                      A                      A
 Frequencies --   1408.7597              1419.1699              1470.5115
 Red. masses --      2.3719                 1.3405                 2.0760
 Frc consts  --      2.7734                 1.5906                 2.6449
 IR Inten    --      4.7226                 0.9021               154.3871

                     25                     26                     27
                      A                      A                      A
 Frequencies --   1491.1160              1493.4578              1590.2170
 Red. masses --      1.0947                 1.2443                 6.0341
 Frc consts  --      1.4341                 1.6351                 8.9903
 IR Inten    --     19.3111                43.8141                50.0459

                     28                     29                     30
                      A                      A                      A
 Frequencies --   1613.6203              3054.8518              3127.5585
 Red. masses --      6.0342                 1.0438                 1.0905
 Frc consts  --      9.2571                 5.7392                 6.2846
 IR Inten    --     28.1556                 7.7659                 9.6467

                     31                     32                     33
                      A                      A                      A
 Frequencies --   3171.5402              3183.9753              3185.1847
 Red. masses --      1.1056                 1.0923                 1.0929
 Frc consts  --      6.5519                 6.5240                 6.5327
 IR Inten    --      6.2860                 8.1819                 5.6460

 - Thermochemistry -
 -------------------
 Temperature   298.150 Kelvin.  Pressure   1.00000 Atm.
 Atom     1 has atomic number  6 and mass  12.00000

 Molecular mass:   171.96361 amu.
 Principal axes and moments of inertia in atomic units:
                           1         2         3
     Eigenvalues --   308.466322758.574763055.84781
           X            1.00000   0.00004  -0.00060
           Y           -0.00004   1.00000  -0.00000
           Z            0.00060   0.00000   1.00000
 This molecule is an asymmetric top.
 Rotational symmetry number  1.
 Rotational temperatures (Kelvin)      0.28079     0.03140     0.02834
 Rotational constants (GHZ):           5.85069     0.65423     0.59059
    1 imaginary frequencies ignored.
 Zero-point vibrational energy     247403.6 (Joules/Mol)
                                   59.13087 (Kcal/Mol)
 Warning -- explicit consideration of   7 degrees of freedom as
           vibrations may cause significant error
 Vibrational temperatures:    139.06   302.88   433.15   438.70   555.39
          (Kelvin)            602.09   688.34   928.18   935.27  1098.55
                             1217.17  1368.19  1426.94  1459.40  1476.69
                             1541.38  1640.55  1790.23  1866.02  1893.14
                             2026.89  2041.87  2115.74  2145.38  2148.75
                             2287.97  2321.64  4395.25  4499.86  4563.14
                             4581.03  4582.77

 Zero-point correction=                           0.094231 (Hartree/Particle)
 Thermal correction to Energy=                    0.100736
 Thermal correction to Enthalpy=                  0.101681
 Thermal correction to Gibbs Free Energy=         0.062004
 Sum of electronic and zero-point Energies=          -2874.686431
 Sum of electronic and thermal Energies=             -2874.679925
 Sum of electronic and thermal Enthalpies=           -2874.678981
 Sum of electronic and thermal Free Energies=        -2874.718658

                     E (Thermal)             CV                S
                      KCal/Mol        Cal/Mol-Kelvin    Cal/Mol-Kelvin
 Total                   63.213             23.554             83.507
 Electronic               0.000              0.000              0.000
 Translational            0.889              2.981             41.334
 Rotational               0.889              2.981             29.343
 Vibrational             61.436             17.592             12.830
 Vibration     1          0.603              1.952              3.521
 Vibration     2          0.643              1.825              2.039
 Vibration     3          0.693              1.672              1.411
 Vibration     4          0.696              1.664              1.390
 Vibration     5          0.755              1.500              1.016
 Vibration     6          0.781              1.430              0.897
 Vibration     7          0.835              1.298              0.714

                           ! Non-Optimized Parameters !
 Normal termination of Gaussian 16 at Tue Sep 17 09:52:38 2024.

 ----------------------------------------------------------------------
 #p M062X/def2tzvp geom=check guess=read scf(xqc,tight) integral(grid=u
 ltrafine) scrf(SMD, solvent=1,4-Dioxane) polar prop=efg volume
 ----------------------------------------------------------------------

 ---
 spe
 ---
 Structure from the checkpoint file:  "smiles_00024_conf_0.chk"
 Charge =  0 Multiplicity = 1

 SCF Done:  E(RM062X) =  -2877.22718743     A.U. after   12 cycles

  Exact polarizability:     151.019       0.079      96.529      -0.655      -0.000      60.830
 Approx polarizability:     151.091       0.079     117.484      -0.513      -0.003      74.761

 Normal termination of Gaussian 16 at Tue Sep 17 09:59:16 2024.
 Gaussian 16:  ES64L-G16RevC.02  7-Dec-2021

 ----------------------------------------------------------------------
 #p M062X/def2tzvp geom=check guess=read scf(xqc,tight) integral(grid=u
 ltrafine) scrf(SMD, solvent=1,4-Dioxane) nmr=giao
 ----------------------------------------------------------------------

 ---
 spe
 ---
 Structure from the checkpoint file:  "smiles_00024_conf_0.chk"
 Charge =  0 Multiplicity = 1

                         Standard orientation:
 ---------------------------------------------------------------------
 Center     Atomic      Atomic             Coordinates (Angstroms)
 Number     Number       Type             X           Y           Z
 ---------------------------------------------------------------------
      1          6           0       -3.864115   -0.000277    0.011181
      2          6           0       -2.362860    0.000599   -0.011262
      3          7           0       -1.745160    1.193993   -0.009842
      4          6           0       -0.410859    1.189766   -0.004355
      5          6           0        0.312260    0.000257   -0.000644
      6         35           0        2.211070   -0.000197    0.002986
      7          6           0       -0.411323   -1.189299   -0.004361
      8          7           0       -1.745285   -1.193173   -0.009853
      9          1           0       -4.251571    0.912304   -0.443838
     10          1           0       -4.251634   -0.880724   -0.503918
     11          1           0       -4.219958   -0.037119    1.047627
     12          1           0        0.095371    2.151874   -0.004933
     13          1           0        0.094838   -2.151464   -0.004933
 ---------------------------------------------------------------------

 SCF Done:  E(RM062X) =  -2877.22718743     A.U. after    1 cycles

      1  C    Isotropic =   158.0746   Anisotropy =    46.8580

      2  C    Isotropic =   -10.2423   Anisotropy =   206.2800

      3  N    Isotropic =  -114.5442   Anisotropy =   550.9369

      4  C    Isotropic =     1.2509   Anisotropy =   196.6532

      5  C    Isotropic =    31.3510   Anisotropy =   140.2708

      6  Br   Isotropic =  2186.1738   Anisotropy =  1123.1366

      7  C    Isotropic =     1.2457   Anisotropy =   196.7181

      8  N    Isotropic =  -114.7923   Anisotropy =   552.6791

      9  H    Isotropic =    29.0757   Anisotropy =     6.9677

     10  H    Isotropic =    29.0547   Anisotropy =     6.9173

     11  H    Isotropic =    28.9465   Anisotropy =     6.5465

     12  H    Isotropic =    22.4006   Anisotropy =    11.4933

     13  H    Isotropic =    22.3942   Anisotropy =    11.4880

 The electronic state is 1-A.
 Alpha  occ. eigenvalues -- -485.39069 -63.37544 -57.19496 -57.19248 -57.19244
 Alpha  occ. eigenvalues --  -14.76902 -14.76901 -10.62827 -10.61556 -10.60906
 Alpha  occ. eigenvalues --  -10.60897 -10.53382  -9.04192  -6.86623  -6.85704
 Alpha  occ. eigenvalues --   -6.85693  -2.90000  -2.89664  -2.89649  -2.88792
 Alpha  occ. eigenvalues --   -2.88792  -1.11291  -1.00727  -0.94762  -0.87131
 Alpha  occ. eigenvalues --   -0.80103  -0.76307  -0.71083  -0.61175  -0.59759
 Alpha  occ. eigenvalues --   -0.53300  -0.50848  -0.50183  -0.47330  -0.46930
 Alpha  occ. eigenvalues --   -0.45689  -0.40177  -0.39173  -0.38621  -0.37261
 Alpha  occ. eigenvalues --   -0.32964  -0.31669
 Alpha virt. eigenvalues --   -0.02314  -0.00708   0.02778   0.08534   0.10437
 Alpha virt. eigenvalues --    0.12049   0.13515   0.14337   0.15632   0.16151
 Alpha virt. eigenvalues --    0.16902   0.18333   0.19507   0.22190   0.22723

 Mulliken charges:
               1
     1  C   -0.457811
     2  C    0.283579
     3  N   -0.271409
     4  C   -0.039030
     5  C    0.010761
     6  Br  -0.078597
     7  C   -0.039648
     8  N   -0.271210
     9  H    0.161823
    10  H    0.162345
    11  H    0.167057
    12  H    0.186078
    13  H    0.186062
 Sum of Mulliken charges =  -0.00000

 Dipole moment (field-independent basis, Debye):
    X=              0.1074    Y=             -0.0057    Z=              0.0640  Tot=              0.1252
 Quadrupole moment (field-independent basis, Debye-Ang):
   XX=            -56.7550   YY=            -60.2718   ZZ=            -59.8519
   XY=              0.0200   XZ=             -0.2541   YZ=              0.0001

 Normal termination of Gaussian 16 at Tue Sep 17 10:02:34 2024.
