 Gaussian 16, Revision C.02,

 ----------------------------------------------------------------------
 #p B3LYP/6-31G(d,p) EmpiricalDispersion=GD3BJ opt freq scf(xqc,tight)
 integral(grid=ultrafine)
 ----------------------------------------------------------------------

 ----------------------------------
 opt-freq conformers_unique/conf_aa
 ----------------------------------
 Symbolic Z-matrix:
 Charge =  0 Multiplicity = 1

 SCF Done:  E(RB3LYP) =  -2957.04890600     A.U. after   14 cycles
 SCF Done:  E(RB3LYP) =  -2957.04997184     A.U. after   11 cycles
 SCF Done:  E(RB3LYP) =  -2957.04998992     A.U. after    9 cycles
 Optimization completed.
    -- Stationary point found.
 Normal termination of Gaussian 16 at Tue Sep 17 09:46:48 2024.

 ----------------------------------------------------------------------
 #P Geom=AllCheck Guess=TCheck SCRF=Check GenChk RB3LYP/6-31G(d,p) Freq
 ----------------------------------------------------------------------

 Structure from the checkpoint file:  "smiles_00022_conf_0.chk"
 ----------------------------------
 opt-freq conformers_unique/conf_aa
 ----------------------------------
 Charge =  0 Multiplicity = 1

 SCF Done:  E(RB3LYP) =  -2957.04998992     A.U. after    1 cycles

                      1                      2                      3
                      A                      A                      A
 Frequencies --     90.4144               178.0022               183.8471
 Red. masses --      5.9325                 7.0972                 3.7262
 Frc consts  --      0.0286                 0.1325                 0.0742
 IR Inten    --      0.0675                 0.0171                 0.6923

                      4                      5                      6
                      A                      A                      A
 Frequencies --    264.4139               272.8836               404.2363
 Red. masses --      5.0859                12.5730                 4.0901
 Frc consts  --      0.2095                 0.5516                 0.3938
 IR Inten    --      0.0359                 2.0167                 2.2417

                      7                      8                      9
                      A                      A                      A
 Frequencies --    405.4782               487.5146               518.9795
 Red. masses --      3.2472                 2.5907                 3.7493
 Frc consts  --      0.3146                 0.3628                 0.5950
 IR Inten    --      0.0987                11.7608                 0.0112

                     10                     11                     12
                      A                      A                      A
 Frequencies --    525.7974               589.1266               644.5589
 Red. masses --      6.8006                 7.3871                 3.3990
 Frc consts  --      1.1077                 1.5106                 0.8320
 IR Inten    --      0.0567                12.0195                 0.8099

                     13                     14                     15
                      A                      A                      A
 Frequencies --    646.7786               761.4768               781.1894
 Red. masses --      6.8433                 1.2552                 2.8232
 Frc consts  --      1.6867                 0.4288                 1.0151
 IR Inten    --      0.2706                21.3561                 1.0331

                     16                     17                     18
                      A                      A                      A
 Frequencies --    785.9680               832.5411               846.2062
 Red. masses --      4.6618                 1.3699                 6.1393
 Frc consts  --      1.6967                 0.5594                 2.5901
 IR Inten    --      2.2514                30.3565                28.6225

                     19                     20                     21
                      A                      A                      A
 Frequencies --    876.8212               919.2929               951.2837
 Red. masses --      1.4523                 1.5831                 5.2912
 Frc consts  --      0.6578                 0.7883                 2.8211
 IR Inten    --     14.4951                 8.2818                20.9147

                     22                     23                     24
                      A                      A                      A
 Frequencies --    962.1939               981.0921               996.4191
 Red. masses --      1.3430                 1.3295                 1.2858
 Frc consts  --      0.7326                 0.7540                 0.7522
 IR Inten    --      3.1548                 0.2287                 0.0093

                     25                     26                     27
                      A                      A                      A
 Frequencies --   1051.1337              1091.3100              1160.6597
 Red. masses --      2.3324                 2.3184                 1.6017
 Frc consts  --      1.5183                 1.6268                 1.2713
 IR Inten    --      0.7545                21.1486                 8.8939

                     28                     29                     30
                      A                      A                      A
 Frequencies --   1179.8581              1185.6158              1235.1187
 Red. masses --      1.2238                 1.1614                 2.0959
 Frc consts  --      1.0037                 0.9619                 1.8839
 IR Inten    --      1.8664                 0.0212                 6.9910

                     31                     32                     33
                      A                      A                      A
 Frequencies --   1269.1110              1293.6189              1385.5118
 Red. masses --      1.4844                 1.8099                 1.9759
 Frc consts  --      1.4086                 1.7845                 2.2348
 IR Inten    --      2.1697                 6.0523                 2.6290

                     34                     35                     36
                      A                      A                      A
 Frequencies --   1407.2307              1420.8373              1478.7605
 Red. masses --      3.7658                 7.8059                 2.4321
 Frc consts  --      4.3937                 9.2846                 3.1334
 IR Inten    --      6.7729                 0.3135                 0.8899

                     37                     38                     39
                      A                      A                      A
 Frequencies --   1499.7419              1554.7062              1625.9724
 Red. masses --      2.1650                 3.3765                 7.1300
 Frc consts  --      2.8691                 4.8085                11.1062
 IR Inten    --     12.1913                19.2454                 1.0752

                     40                     41                     42
                      A                      A                      A
 Frequencies --   1646.0224              1682.4748              3179.3842
 Red. masses --      5.5517                 6.1232                 1.0858
 Frc consts  --      8.8624                10.2124                 6.4668
 IR Inten    --     33.9356                 8.6942                 2.0110

                     43                     44                     45
                      A                      A                      A
 Frequencies --   3183.9806              3187.6368              3197.0292
 Red. masses --      1.0885                 1.0890                 1.0939
 Frc consts  --      6.5017                 6.5197                 6.5873
 IR Inten    --      0.6103                 7.0604                27.2679

                     46                     47                     48
                      A                      A                      A
 Frequencies --   3208.8686              3209.9823              3223.8623
 Red. masses --      1.0951                 1.0943                 1.0941
 Frc consts  --      6.6438                 6.6437                 6.7000
 IR Inten    --     16.5896                10.7410                 3.6715

 - Thermochemistry -
 -------------------
 Temperature   298.150 Kelvin.  Pressure   1.00000 Atm.
 Atom     1 has atomic number 35 and mass  78.91834

 Molecular mass:   205.97311 amu.
 Principal axes and moments of inertia in atomic units:
                           1         2         3
     Eigenvalues --   678.352974721.247285399.60025
           X            0.99996  -0.00903  -0.00000
           Y            0.00903   0.99996  -0.00000
           Z            0.00000   0.00000   1.00000
 This molecule is an asymmetric top.
 Rotational symmetry number  1.
 Warning -- assumption of classical behavior for rotation
           may cause significant error
 Rotational temperatures (Kelvin)      0.12768     0.01835     0.01604
 Rotational constants (GHZ):           2.66048     0.38226     0.33424
 Zero-point vibrational energy     361660.7 (Joules/Mol)
                                   86.43898 (Kcal/Mol)
 Warning -- explicit consideration of  11 degrees of freedom as
           vibrations may cause significant error
 Vibrational temperatures:    130.09   256.11   264.51   380.43   392.62
          (Kelvin)            581.61   583.39   701.42   746.70   756.51
                              847.62   927.38   930.57  1095.60  1123.96
                             1130.83  1197.84  1217.50  1261.55  1322.66
                             1368.69  1384.38  1411.57  1433.62  1512.35
                             1570.15  1669.93  1697.55  1705.84  1777.06
                             1825.97  1861.23  1993.44  2024.69  2044.27
                             2127.61  2157.79  2236.88  2339.41  2368.26
                             2420.71  4574.42  4581.04  4586.30  4599.81
                             4616.85  4618.45  4638.42

 Zero-point correction=                           0.137749 (Hartree/Particle)
 Thermal correction to Energy=                    0.145997
 Thermal correction to Enthalpy=                  0.146941
 Thermal correction to Gibbs Free Energy=         0.103311
 Sum of electronic and zero-point Energies=          -2956.912241
 Sum of electronic and thermal Energies=             -2956.903993
 Sum of electronic and thermal Enthalpies=           -2956.903049
 Sum of electronic and thermal Free Energies=        -2956.946679

                     E (Thermal)             CV                S
                      KCal/Mol        Cal/Mol-Kelvin    Cal/Mol-Kelvin
 Total                   91.615             32.963             91.828
 Electronic               0.000              0.000              0.000
 Translational            0.889              2.981             41.872
 Rotational               0.889              2.981             31.226
 Vibrational             89.837             27.002             18.730
 Vibration     1          0.602              1.956              3.651
 Vibration     2          0.628              1.869              2.349
 Vibration     3          0.631              1.862              2.289
 Vibration     4          0.671              1.738              1.632
 Vibration     5          0.676              1.723              1.578
 Vibration     6          0.769              1.461              0.947
 Vibration     7          0.770              1.458              0.943
 Vibration     8          0.843              1.278              0.690
 Vibration     9          0.874              1.208              0.612
 Vibration    10          0.881              1.193              0.597
 Vibration    11          0.946              1.055              0.469

 Optimization completed.
    -- Stationary point found.
 Normal termination of Gaussian 16 at Tue Sep 17 09:48:01 2024.

 ----------------------------------------------------------------------
 #p M062X/def2tzvp geom=check guess=read scf(xqc,tight) integral(grid=u
 ltrafine) scrf(SMD, solvent=1,4-Dioxane) polar prop=efg volume
 ----------------------------------------------------------------------

 ---
 spe
 ---
 Structure from the checkpoint file:  "smiles_00022_conf_0.chk"
 Charge =  0 Multiplicity = 1

 SCF Done:  E(RM062X) =  -2959.46584728     A.U. after   12 cycles

  Exact polarizability:     250.480      -9.356     159.922       0.000       0.000      80.136
 Approx polarizability:     255.625      -9.151     190.837       0.000       0.000     101.297

 1\1\GINC-HPC-20-31\SP\RM062X\def2TZVP\C10H7Br1\MANTIND\17-Sep-2024\0\\
 #p M062X/def2tzvp geom=check guess=read scf(xqc,tight) integral(grid=u
 ltrafine) scrf(SMD, solvent=1,4-Dioxane) polar prop=efg volume\\spe\\0
 ,1\Br,0,2.7181049552,0.2031179185,-0.0000002353\C,0,0.8463916438,-0.18
 40038927,-0.0000000987\C,0,0.4400761028,-1.5379296589,0.0000000233\C,0
 ,-0.9021737669,-1.8347329783,0.0000001141\C,0,-1.8831206344,-0.8084738
 119,0.0000000778\C,0,-3.2738454782,-1.0900289683,0.0000001904\C,0,-4.1
 976233237,-0.0704440324,0.0000001334\C,0,-3.7710683651,1.2798055746,-0

 Normal termination of Gaussian 16 at Tue Sep 17 10:24:36 2024.
 Gaussian 16:  ES64L-G16RevC.02  7-Dec-2021

 ----------------------------------------------------------------------
 #p M062X/def2tzvp geom=check guess=read scf(xqc,tight) integral(grid=u
 ltrafine) scrf(SMD, solvent=1,4-Dioxane) nmr=giao
 ----------------------------------------------------------------------

 ---
 spe
 ---
 Structure from the checkpoint file:  "smiles_00022_conf_0.chk"
 Charge =  0 Multiplicity = 1

                         Standard orientation:
 ---------------------------------------------------------------------
 Center     Atomic      Atomic             Coordinates (Angstroms)
 Number     Number       Type             X           Y           Z
 ---------------------------------------------------------------------
      1         35           0       -2.913999   -0.246096   -0.000000
      2          6           0       -1.046157    0.159296   -0.000000
      3          6           0       -0.653090    1.517127    0.000000
      4          6           0        0.686196    1.827031    0.000000
      5          6           0        1.677123    0.810405    0.000000
      6          6           0        3.065031    1.105535    0.000000
      7          6           0        3.998727    0.095025    0.000000
      8          6           0        3.585385   -1.259328    0.000000
      9          6           0        2.247423   -1.579210   -0.000000
     10          6           0        1.259610   -0.559405    0.000000
     11          6           0       -0.127723   -0.860713   -0.000000
     12          1           0       -1.408614    2.293646    0.000000
     13          1           0        1.001059    2.866602    0.000000
     14          1           0        3.377387    2.145999    0.000000
     15          1           0        5.057986    0.332082    0.000000
     16          1           0        4.332158   -2.047192   -0.000000
     17          1           0        1.926862   -2.616997   -0.000000
     18          1           0       -0.452040   -1.895372   -0.000000
 ---------------------------------------------------------------------

 SCF Done:  E(RM062X) =  -2959.46584728     A.U. after    1 cycles

      1  Br   Isotropic =  2088.8444   Anisotropy =  1289.2582

      2  C    Isotropic =    27.7557   Anisotropy =   137.7623

      3  C    Isotropic =    34.1896   Anisotropy =   176.0543

      4  C    Isotropic =    33.7447   Anisotropy =   188.6293

      5  C    Isotropic =    30.5515   Anisotropy =   249.1616

      6  C    Isotropic =    35.1709   Anisotropy =   194.9246

      7  C    Isotropic =    37.7617   Anisotropy =   215.2640

      8  C    Isotropic =    35.7122   Anisotropy =   213.1788

      9  C    Isotropic =    35.8655   Anisotropy =   192.0801

     10  C    Isotropic =    28.1408   Anisotropy =   240.8498

     11  C    Isotropic =    32.9146   Anisotropy =   161.6694

     12  H    Isotropic =    23.4964   Anisotropy =    10.8980

     13  H    Isotropic =    23.0864   Anisotropy =     8.3936

     14  H    Isotropic =    23.0049   Anisotropy =     8.5015

     15  H    Isotropic =    23.4725   Anisotropy =     6.4852

     16  H    Isotropic =    23.3695   Anisotropy =     6.7594

     17  H    Isotropic =    23.0804   Anisotropy =     9.0983

     18  H    Isotropic =    22.9950   Anisotropy =    12.7941

 The electronic state is 1-A.
 Alpha  occ. eigenvalues -- -485.37532 -63.36010 -57.17954 -57.17720 -57.17713
 Alpha  occ. eigenvalues --  -10.60455 -10.56316 -10.56044 -10.55721 -10.55711
 Alpha  occ. eigenvalues --  -10.55542 -10.54981 -10.54976 -10.54877 -10.54798
 Alpha  occ. eigenvalues --   -9.02653  -6.85056  -6.84189  -6.84167  -2.88432
 Alpha  occ. eigenvalues --   -2.88119  -2.88094  -2.87285  -2.87285  -0.99353
 Alpha  occ. eigenvalues --   -0.94465  -0.89150  -0.87407  -0.83282  -0.80843
 Alpha  occ. eigenvalues --   -0.71792  -0.69217  -0.68698  -0.59738  -0.58726
 Alpha  occ. eigenvalues --   -0.56368  -0.52482  -0.51606  -0.49178  -0.48911
 Alpha  occ. eigenvalues --   -0.47992  -0.46480  -0.43771  -0.42276  -0.40347
 Alpha  occ. eigenvalues --   -0.39577  -0.36820  -0.35179  -0.34889  -0.29814
 Alpha  occ. eigenvalues --   -0.27366
 Alpha virt. eigenvalues --   -0.02534   0.00204   0.03661   0.04280   0.09127
 Alpha virt. eigenvalues --    0.09666   0.10807   0.12112   0.12664   0.12950
 Alpha virt. eigenvalues --    0.14531   0.15463   0.15853   0.18134   0.19107

 Mulliken charges:
               1
     1  Br  -0.114359
     2  C    0.055824
     3  C   -0.175083
     4  C   -0.193731
     5  C    0.094007
     6  C   -0.204809
     7  C   -0.158205
     8  C   -0.153057
     9  C   -0.210730
    10  C    0.111151
    11  C   -0.214927
    12  H    0.179155
    13  H    0.162993
    14  H    0.158300
    15  H    0.163468
    16  H    0.163776
    17  H    0.158559
    18  H    0.177667
 Sum of Mulliken charges =   0.00000

 Dipole moment (field-independent basis, Debye):
    X=              2.4124    Y=              0.4007    Z=              0.0000  Tot=              2.4454
 Quadrupole moment (field-independent basis, Debye-Ang):
   XX=            -70.9668   YY=            -66.4788   ZZ=            -82.0793
   XY=             -0.6587   XZ=              0.0000   YZ=              0.0000

 1\1\GINC-HPC-20-31\SP\RM062X\def2TZVP\C10H7Br1\MANTIND\17-Sep-2024\0\\
 #p M062X/def2tzvp geom=check guess=read scf(xqc,tight) integral(grid=u
 ltrafine) scrf(SMD, solvent=1,4-Dioxane) nmr=giao\\spe\\0,1\Br,0,2.718
 1049552,0.2031179185,-0.0000002353\C,0,0.8463916438,-0.1840038927,-0.0
 000000987\C,0,0.4400761028,-1.5379296589,0.0000000233\C,0,-0.902173766
 9,-1.8347329783,0.0000001141\C,0,-1.8831206344,-0.8084738119,0.0000000
 778\C,0,-3.2738454782,-1.0900289683,0.0000001904\C,0,-4.1976233237,-0.
 0704440324,0.0000001334\C,0,-3.7710683651,1.2798055746,-0.0000000409\C

 Normal termination of Gaussian 16 at Tue Sep 17 10:38:00 2024.
