 Gaussian 16, Revision C.02,

 ----------------------------------------------------------------------
 #p B3LYP/6-31G(d,p) EmpiricalDispersion=GD3BJ opt freq scf(xqc,tight)
 integral(grid=ultrafine)
 ----------------------------------------------------------------------

 ----------------------------------
 opt-freq conformers_unique/conf_aa
 ----------------------------------
 Symbolic Z-matrix:
 Charge =  0 Multiplicity = 1

 SCF Done:  E(RB3LYP) =  -2974.28520806     A.U. after   14 cycles
 SCF Done:  E(RB3LYP) =  -2974.28686008     A.U. after   12 cycles
 SCF Done:  E(RB3LYP) =  -2974.28690711     A.U. after    9 cycles
 SCF Done:  E(RB3LYP) =  -2974.28690965     A.U. after    8 cycles
 Optimization completed.
    -- Stationary point found.
 Normal termination of Gaussian 16 at Tue Sep 17 09:45:04 2024.

 ----------------------------------------------------------------------
 #P Geom=AllCheck Guess=TCheck SCRF=Check GenChk RB3LYP/6-31G(d,p) Freq
 ----------------------------------------------------------------------

 Structure from the checkpoint file:  "smiles_00055_conf_0.chk"
 ----------------------------------
 opt-freq conformers_unique/conf_aa
 ----------------------------------
 Charge =  0 Multiplicity = 1

 SCF Done:  E(RB3LYP) =  -2974.28690965     A.U. after    1 cycles

                      1                      2                      3
                      A                      A                      A
 Frequencies --     70.0428                86.0688               168.1671
 Red. masses --      1.4799                 2.3651                 3.0105
 Frc consts  --      0.0043                 0.0103                 0.0502
 IR Inten    --      0.6463                 0.9450                 0.8410

                      4                      5                      6
                      A                      A                      A
 Frequencies --    173.5715               229.1616               240.8412
 Red. masses --      5.1053                 4.1655                 6.7171
 Frc consts  --      0.0906                 0.1289                 0.2296
 IR Inten    --      0.5376                 2.3902                 1.0572

                      7                      8                      9
                      A                      A                      A
 Frequencies --    321.4863               330.1376               435.7579
 Red. masses --      4.7456                 5.8242                 2.9495
 Frc consts  --      0.2890                 0.3740                 0.3300
 IR Inten    --      0.9755                 0.1217                 4.5585

                     10                     11                     12
                      A                      A                      A
 Frequencies --    485.7423               587.2479               597.5036
 Red. masses --      3.5516                 3.6324                 6.1531
 Frc consts  --      0.4937                 0.7380                 1.2943
 IR Inten    --      3.4297                 0.0002                 8.0064

                     13                     14                     15
                      A                      A                      A
 Frequencies --    607.3696               616.2294               726.5952
 Red. masses --      5.2398                 4.0470                 1.3435
 Frc consts  --      1.1389                 0.9055                 0.4179
 IR Inten    --      2.9888                 2.7957                34.9568

                     16                     17                     18
                      A                      A                      A
 Frequencies --    753.4618               777.5661               797.1518
 Red. masses --      6.1659                 2.3096                 4.9744
 Frc consts  --      2.0624                 0.8227                 1.8624
 IR Inten    --     33.9995                12.8280                 5.4465

                     19                     20                     21
                      A                      A                      A
 Frequencies --    811.7068               849.9438               905.9182
 Red. masses --      1.7636                 1.2870                 1.4861
 Frc consts  --      0.6846                 0.5478                 0.7186
 IR Inten    --     18.2412                 0.0884                12.8029

                     22                     23                     24
                      A                      A                      A
 Frequencies --    912.6834               942.8555              1032.3698
 Red. masses --      5.0403                 1.3015                 1.9769
 Frc consts  --      2.4737                 0.6817                 1.2414
 IR Inten    --     20.1403                 0.1614                19.0566

                     25                     26                     27
                      A                      A                      A
 Frequencies --   1078.8977              1108.5700              1130.5114
 Red. masses --      2.0856                 1.1856                 2.4122
 Frc consts  --      1.4304                 0.8584                 1.8164
 IR Inten    --     11.8145                17.9385                 5.9909

                     28                     29                     30
                      A                      A                      A
 Frequencies --   1152.6107              1178.0715              1226.4800
 Red. masses --      1.2931                 1.3862                 2.2802
 Frc consts  --      1.0122                 1.1335                 2.0209
 IR Inten    --      0.1325                 5.9236                 6.9682

                     31                     32                     33
                      A                      A                      A
 Frequencies --   1274.8525              1319.9418              1373.9771
 Red. masses --      1.5859                 1.8348                 7.9167
 Frc consts  --      1.5186                 1.8834                 8.8055
 IR Inten    --     17.4017                24.9276                26.9330

                     34                     35                     36
                      A                      A                      A
 Frequencies --   1398.9549              1424.6571              1464.6905
 Red. masses --      2.9710                 4.7440                 1.3190
 Frc consts  --      3.4258                 5.6730                 1.6672
 IR Inten    --      4.6613                 7.1037                40.3830

                     37                     38                     39
                      A                      A                      A
 Frequencies --   1484.2476              1493.4348              1517.3639
 Red. masses --      3.9799                 1.0401                 2.7337
 Frc consts  --      5.1658                 1.3667                 3.7083
 IR Inten    --      7.0047                 7.1927               107.4788

                     40                     41                     42
                      A                      A                      A
 Frequencies --   1533.1940              1567.3662              1616.9903
 Red. masses --      1.1186                 4.2941                 6.7254
 Frc consts  --      1.5492                 6.2153                10.3606
 IR Inten    --      7.4776                20.5319                12.4674

                     43                     44                     45
                      A                      A                      A
 Frequencies --   1664.0166              3039.3088              3096.6321
 Red. masses --      7.0718                 1.0356                 1.1055
 Frc consts  --     11.5370                 5.6361                 6.2457
 IR Inten    --      3.3784                62.7974                23.0956

                     46                     47                     48
                      A                      A                      A
 Frequencies --   3152.2319              3198.4700              3217.1368
 Red. masses --      1.1008                 1.0891                 1.0918
 Frc consts  --      6.4446                 6.5645                 6.6579
 IR Inten    --      8.5711                 7.4685                 1.7889

                     49                     50                     51
                      A                      A                      A
 Frequencies --   3225.6691              3254.2755              3274.3516
 Red. masses --      1.0939                 1.0900                 1.1037
 Frc consts  --      6.7063                 6.8014                 6.9719
 IR Inten    --      3.2584                 0.1965                 4.5376

 - Thermochemistry -
 -------------------
 Temperature   298.150 Kelvin.  Pressure   1.00000 Atm.
 Atom     1 has atomic number  6 and mass  12.00000

 Molecular mass:   208.98401 amu.
 Principal axes and moments of inertia in atomic units:
                           1         2         3
     Eigenvalues --   685.089684870.555955544.24759
           X            0.99997  -0.00718  -0.00002
           Y            0.00718   0.99997   0.00000
           Z            0.00002  -0.00000   1.00000
 This molecule is an asymmetric top.
 Rotational symmetry number  1.
 Warning -- assumption of classical behavior for rotation
           may cause significant error
 Rotational temperatures (Kelvin)      0.12643     0.01778     0.01562
 Rotational constants (GHZ):           2.63431     0.37054     0.32552
 Zero-point vibrational energy     388346.6 (Joules/Mol)
                                   92.81707 (Kcal/Mol)
 Warning -- explicit consideration of  14 degrees of freedom as
           vibrations may cause significant error
 Vibrational temperatures:    100.78   123.83   241.95   249.73   329.71
          (Kelvin)            346.52   462.55   474.99   626.96   698.87
                              844.92   859.67   873.87   886.62  1045.41
                             1084.06  1118.74  1146.92  1167.87  1222.88
                             1303.41  1313.15  1356.56  1485.35  1552.29
                             1594.98  1626.55  1658.35  1694.98  1764.63
                             1834.23  1899.10  1976.85  2012.78  2049.76
                             2107.36  2135.50  2148.72  2183.15  2205.92
                             2255.09  2326.49  2394.15  4372.89  4455.36
                             4535.36  4601.88  4628.74  4641.02  4682.18
                             4711.06

 Zero-point correction=                           0.147913 (Hartree/Particle)
 Thermal correction to Energy=                    0.157346
 Thermal correction to Enthalpy=                  0.158290
 Thermal correction to Gibbs Free Energy=         0.111808
 Sum of electronic and zero-point Energies=          -2974.138996
 Sum of electronic and thermal Energies=             -2974.129564
 Sum of electronic and thermal Enthalpies=           -2974.128620
 Sum of electronic and thermal Free Energies=        -2974.175101

                     E (Thermal)             CV                S
                      KCal/Mol        Cal/Mol-Kelvin    Cal/Mol-Kelvin
 Total                   98.736             35.690             97.829
 Electronic               0.000              0.000              0.000
 Translational            0.889              2.981             41.915
 Rotational               0.889              2.981             31.293
 Vibrational             96.959             29.728             24.621
 Vibration     1          0.598              1.968              4.152
 Vibration     2          0.601              1.959              3.747
 Vibration     3          0.625              1.882              2.456
 Vibration     4          0.627              1.875              2.396
 Vibration     5          0.652              1.796              1.886
 Vibration     6          0.658              1.778              1.797
 Vibration     7          0.707              1.632              1.303
 Vibration     8          0.713              1.615              1.259
 Vibration     9          0.796              1.392              0.840
 Vibration    10          0.842              1.282              0.695
 Vibration    11          0.944              1.059              0.472
 Vibration    12          0.955              1.037              0.454
 Vibration    13          0.966              1.016              0.437
 Vibration    14          0.976              0.998              0.423

 Optimization completed.
    -- Stationary point found.
 Normal termination of Gaussian 16 at Tue Sep 17 09:46:46 2024.

 ----------------------------------------------------------------------
 #p M062X/def2tzvp geom=check guess=read scf(xqc,tight) integral(grid=u
 ltrafine) scrf(SMD, solvent=1,4-Dioxane) polar prop=efg volume
 ----------------------------------------------------------------------

 ---
 spe
 ---
 Structure from the checkpoint file:  "smiles_00055_conf_0.chk"
 Charge =  0 Multiplicity = 1

 SCF Done:  E(RM062X) =  -2976.70869017     A.U. after   13 cycles

  Exact polarizability:     228.237       6.451     154.544       0.004      -0.000      83.977
 Approx polarizability:     228.134       6.624     180.667       0.003      -0.000     104.287

 Normal termination of Gaussian 16 at Tue Sep 17 10:35:38 2024.
 Gaussian 16:  ES64L-G16RevC.02  7-Dec-2021

 ----------------------------------------------------------------------
 #p M062X/def2tzvp geom=check guess=read scf(xqc,tight) integral(grid=u
 ltrafine) scrf(SMD, solvent=1,4-Dioxane) nmr=giao
 ----------------------------------------------------------------------

 ---
 spe
 ---
 Structure from the checkpoint file:  "smiles_00055_conf_0.chk"
 Charge =  0 Multiplicity = 1

                         Standard orientation:
 ---------------------------------------------------------------------
 Center     Atomic      Atomic             Coordinates (Angstroms)
 Number     Number       Type             X           Y           Z
 ---------------------------------------------------------------------
      1          6           0        3.974292   -1.257168    0.000113
      2          7           0        3.008958   -0.179466    0.000063
      3          6           0        3.291527    1.175784    0.000073
      4          6           0        2.128911    1.902031    0.000051
      5          6           0        1.048949    0.957212    0.000022
      6          6           0       -0.350585    1.071279   -0.000013
      7          6           0       -1.097781   -0.095297   -0.000028
      8         35           0       -3.011698    0.025370   -0.000073
      9          6           0       -0.513387   -1.374738   -0.000009
     10          6           0        0.869596   -1.507641    0.000025
     11          6           0        1.637880   -0.340107    0.000036
     12          1           0        4.979885   -0.834509   -0.000095
     13          1           0        3.859515   -1.885762   -0.889578
     14          1           0        3.859761   -1.885495    0.890027
     15          1           0        4.319309    1.509883    0.000095
     16          1           0        2.050653    2.978978    0.000049
     17          1           0       -0.837223    2.039549   -0.000025
     18          1           0       -1.149532   -2.251314   -0.000020
     19          1           0        1.327950   -2.491138    0.000045
 ---------------------------------------------------------------------

 SCF Done:  E(RM062X) =  -2976.70869017     A.U. after    1 cycles

      1  C    Isotropic =   151.4820   Anisotropy =    55.2002

      2  N    Isotropic =    95.9887   Anisotropy =   119.0745

      3  C    Isotropic =    35.2094   Anisotropy =   121.3976

      4  C    Isotropic =    69.8995   Anisotropy =   135.6093

      5  C    Isotropic =    33.6987   Anisotropy =   190.2393

      6  C    Isotropic =    40.9422   Anisotropy =   164.5496

      7  C    Isotropic =    36.7638   Anisotropy =   121.7111

      8  Br   Isotropic =  2121.5609   Anisotropy =  1291.2565

      9  C    Isotropic =    40.6039   Anisotropy =   171.9092

     10  C    Isotropic =    57.0534   Anisotropy =   181.6728

     11  C    Isotropic =    29.5254   Anisotropy =   174.8477

     12  H    Isotropic =    27.9895   Anisotropy =     8.7503

     13  H    Isotropic =    28.0586   Anisotropy =     9.6782

     14  H    Isotropic =    28.0588   Anisotropy =     9.6794

     15  H    Isotropic =    24.1655   Anisotropy =     5.0177

     16  H    Isotropic =    24.7951   Anisotropy =     4.2186

     17  H    Isotropic =    23.4053   Anisotropy =    11.6053

     18  H    Isotropic =    23.8508   Anisotropy =    10.6603

     19  H    Isotropic =    23.7968   Anisotropy =     8.3579

 The electronic state is 1-A.
 Alpha  occ. eigenvalues -- -485.36606 -63.35085 -57.17028 -57.16794 -57.16792
 Alpha  occ. eigenvalues --  -14.80025 -10.59163 -10.57963 -10.57666 -10.57613
 Alpha  occ. eigenvalues --  -10.55114 -10.54973 -10.54841 -10.54721 -10.53032
 Alpha  occ. eigenvalues --   -9.01727  -6.84124  -6.83260  -6.83253  -2.87500
 Alpha  occ. eigenvalues --   -2.87185  -2.87172  -2.86366  -2.86366  -1.10244
 Alpha  occ. eigenvalues --   -0.96586  -0.90691  -0.88255  -0.83466  -0.81159
 Alpha  occ. eigenvalues --   -0.77390  -0.70613  -0.66342  -0.65322  -0.59893
 Alpha  occ. eigenvalues --   -0.56147  -0.54471  -0.53049  -0.51552  -0.50089
 Alpha  occ. eigenvalues --   -0.48886  -0.46980  -0.46688  -0.45325  -0.42234
 Alpha  occ. eigenvalues --   -0.41650  -0.40326  -0.35730  -0.34359  -0.34031
 Alpha  occ. eigenvalues --   -0.27290  -0.26043
 Alpha virt. eigenvalues --    0.00224   0.03809   0.04327   0.07157   0.08726
 Alpha virt. eigenvalues --    0.09875   0.10975   0.11571   0.13006   0.13053
 Alpha virt. eigenvalues --    0.14649   0.15048   0.16081   0.16476   0.17568

 Mulliken charges:
               1
     1  C   -0.373046
     2  N   -0.083041
     3  C   -0.065633
     4  C   -0.314007
     5  C    0.135144
     6  C   -0.268676
     7  C    0.068118
     8  Br  -0.137902
     9  C   -0.186777
    10  C   -0.228186
    11  C    0.061929
    12  H    0.163278
    13  H    0.174607
    14  H    0.174616
    15  H    0.189447
    16  H    0.158750
    17  H    0.173840
    18  H    0.174311
    19  H    0.183228
 Sum of Mulliken charges =  -0.00000

 Dipole moment (field-independent basis, Debye):
    X=              5.3036    Y=             -1.2182    Z=              0.0001  Tot=              5.4417
 Quadrupole moment (field-independent basis, Debye-Ang):
   XX=            -62.9170   YY=            -68.9073   ZZ=            -82.1684
   XY=             -3.7138   XZ=              0.0004   YZ=             -0.0001

 Normal termination of Gaussian 16 at Tue Sep 17 10:52:26 2024.
