 Gaussian 16, Revision C.02,

 ----------------------------------------------------------------------
 #p B3LYP/6-31G(d,p) EmpiricalDispersion=GD3BJ opt freq scf(xqc,tight)
 integral(grid=ultrafine)
 ----------------------------------------------------------------------

 ----------------------------------
 opt-freq conformers_unique/conf_aa
 ----------------------------------
 Symbolic Z-matrix:
 Charge =  0 Multiplicity = 1

 SCF Done:  E(RB3LYP) =  -3299.50271092     A.U. after   13 cycles
 SCF Done:  E(RB3LYP) =  -3299.50298164     A.U. after   10 cycles
 SCF Done:  E(RB3LYP) =  -3299.50299032     A.U. after    8 cycles
 Optimization completed.
    -- Stationary point found.
 Normal termination of Gaussian 16 at Tue Sep 17 09:54:22 2024.

 ----------------------------------------------------------------------
 #P Geom=AllCheck Guess=TCheck SCRF=Check GenChk RB3LYP/6-31G(d,p) Freq
 ----------------------------------------------------------------------

 Structure from the checkpoint file:  "smiles_00074_conf_0.chk"
 ----------------------------------
 opt-freq conformers_unique/conf_aa
 ----------------------------------
 Charge =  0 Multiplicity = 1

 SCF Done:  E(RB3LYP) =  -3299.50299032     A.U. after    1 cycles

                      1                      2                      3
                      A                      A                      A
 Frequencies --     93.2650               134.2368               158.5857
 Red. masses --     20.3832                18.5203                23.3593
 Frc consts  --      0.1045                 0.1966                 0.3461
 IR Inten    --      0.0001                 0.0000                 0.0636

                      4                      5                      6
                      A                      A                      A
 Frequencies --    169.2318               211.9239               245.0570
 Red. masses --     18.2911                14.4231                28.8688
 Frc consts  --      0.3086                 0.3817                 1.0214
 IR Inten    --      0.0846                 2.9384                 0.2473

                      7                      8                      9
                      A                      A                      A
 Frequencies --    265.8942               274.8261               305.1398
 Red. masses --     18.8211                19.5037                18.1112
 Frc consts  --      0.7840                 0.8679                 0.9936
 IR Inten    --      0.0217                 0.1951                 0.9833

                     10                     11                     12
                      A                      A                      A
 Frequencies --    358.2357               362.9749               385.5091
 Red. masses --     12.6496                18.0345                12.6534
 Frc consts  --      0.9565                 1.3999                 1.1080
 IR Inten    --      1.0276                 0.6997                 0.0000

                     13                     14                     15
                      A                      A                      A
 Frequencies --    445.7504               503.1201               588.0190
 Red. masses --     16.0118                16.5147                17.2879
 Frc consts  --      1.8745                 2.4630                 3.5219
 IR Inten    --      0.0001                 1.1294                 0.0003

                     16                     17                     18
                      A                      A                      A
 Frequencies --    598.0044               636.2330               672.8233
 Red. masses --     12.1589                12.2008                12.0711
 Frc consts  --      2.5618                 2.9099                 3.2196
 IR Inten    --      0.0684                 0.0000                 2.3797

                     19                     20                     21
                      A                      A                      A
 Frequencies --    760.6618               838.7104              1011.9531
 Red. masses --     12.6816                13.6702                14.2390
 Frc consts  --      4.3232                 5.6656                 8.5912
 IR Inten    --      0.0014               104.3623               175.0586

                     22                     23                     24
                      A                      A                      A
 Frequencies --   1119.0336              1192.3832              1328.8098
 Red. masses --     13.5865                13.6714                12.7901
 Frc consts  --     10.0241                11.4523                13.3061
 IR Inten    --     64.3171                 1.5134                 0.3269

                     25                     26                     27
                      A                      A                      A
 Frequencies --   1329.6192              1467.8209              1548.5682
 Red. masses --     12.0030                12.5895                12.3702
 Frc consts  --     12.5025                15.9810                17.4778
 IR Inten    --      0.4853                 4.4586               386.6695

                     28                     29                     30
                      A                      A                      A
 Frequencies --   1552.4256              1671.8817              1672.7992
 Red. masses --     12.5081                12.0516                12.0533
 Frc consts  --     17.7608                19.8475                19.8721
 IR Inten    --    229.3534                 6.2385                 0.3287

 - Thermochemistry -
 -------------------
 Temperature   298.150 Kelvin.  Pressure   1.00000 Atm.
 Atom     1 has atomic number  9 and mass  18.99840

 Molecular mass:   245.91035 amu.
 Principal axes and moments of inertia in atomic units:
                           1         2         3
     Eigenvalues --  1768.210933674.170205442.38113
           X            1.00000  -0.00000   0.00001
           Y            0.00000   1.00000   0.00000
           Z           -0.00001  -0.00000   1.00000
 This molecule is an asymmetric top.
 Rotational symmetry number  1.
 Warning -- assumption of classical behavior for rotation
           may cause significant error
 Rotational temperatures (Kelvin)      0.04898     0.02357     0.01591
 Rotational constants (GHZ):           1.02066     0.49120     0.33161
 Zero-point vibrational energy     131012.0 (Joules/Mol)
                                   31.31262 (Kcal/Mol)
 Warning -- explicit consideration of  16 degrees of freedom as
           vibrations may cause significant error
 Vibrational temperatures:    134.19   193.14   228.17   243.49   304.91
          (Kelvin)            352.58   382.56   395.41   439.03   515.42
                              522.24   554.66   641.34   723.88   846.03
                              860.40   915.40   968.04  1094.42  1206.72
                             1455.97  1610.04  1715.57  1911.86  1913.03
                             2111.87  2228.04  2233.59  2405.46  2406.79

 Zero-point correction=                           0.049900 (Hartree/Particle)
 Thermal correction to Energy=                    0.060134
 Thermal correction to Enthalpy=                  0.061079
 Thermal correction to Gibbs Free Energy=         0.012965
 Sum of electronic and zero-point Energies=          -3299.453090
 Sum of electronic and thermal Energies=             -3299.442856
 Sum of electronic and thermal Enthalpies=           -3299.441912
 Sum of electronic and thermal Free Energies=        -3299.490025

                     E (Thermal)             CV                S
                      KCal/Mol        Cal/Mol-Kelvin    Cal/Mol-Kelvin
 Total                   37.735             36.178            101.264
 Electronic               0.000              0.000              0.000
 Translational            0.889              2.981             42.400
 Rotational               0.889              2.981             31.936
 Vibrational             35.957             30.216             26.927
 Vibration     1          0.602              1.954              3.590
 Vibration     2          0.613              1.919              2.884
 Vibration     3          0.621              1.893              2.567
 Vibration     4          0.625              1.880              2.444
 Vibration     5          0.643              1.823              2.027
 Vibration     6          0.660              1.771              1.766
 Vibration     7          0.672              1.736              1.623
 Vibration     8          0.677              1.720              1.566
 Vibration     9          0.696              1.664              1.389
 Vibration    10          0.733              1.558              1.130
 Vibration    11          0.737              1.549              1.109
 Vibration    12          0.754              1.501              1.017
 Vibration    13          0.805              1.370              0.809
 Vibration    14          0.858              1.243              0.650
 Vibration    15          0.945              1.057              0.471
 Vibration    16          0.956              1.036              0.453

 Optimization completed.
    -- Stationary point found.
 Normal termination of Gaussian 16 at Tue Sep 17 09:55:12 2024.

 ----------------------------------------------------------------------
 #p M062X/def2tzvp geom=check guess=read scf(xqc,tight) integral(grid=u
 ltrafine) scrf(SMD, solvent=1,4-Dioxane) polar prop=efg volume
 ----------------------------------------------------------------------

 ---
 spe
 ---
 Structure from the checkpoint file:  "smiles_00074_conf_0.chk"
 Charge =  0 Multiplicity = 1

 SCF Done:  E(RM062X) =  -3302.04695360     A.U. after   11 cycles

  Exact polarizability:     137.810       0.000     104.684      -0.001      -0.000      54.901
 Approx polarizability:     149.166       0.000     126.784      -0.001      -0.000      68.972

 Normal termination of Gaussian 16 at Tue Sep 17 10:18:02 2024.
 Gaussian 16:  ES64L-G16RevC.02  7-Dec-2021

 ----------------------------------------------------------------------
 #p M062X/def2tzvp geom=check guess=read scf(xqc,tight) integral(grid=u
 ltrafine) scrf(SMD, solvent=1,4-Dioxane) nmr=giao
 ----------------------------------------------------------------------

 ---
 spe
 ---
 Structure from the checkpoint file:  "smiles_00074_conf_0.chk"
 Charge =  0 Multiplicity = 1

                         Standard orientation:
 ---------------------------------------------------------------------
 Center     Atomic      Atomic             Coordinates (Angstroms)
 Number     Number       Type             X           Y           Z
 ---------------------------------------------------------------------
      1          9           0        3.502817   -0.000018   -0.000015
      2          6           0        2.168955    0.000001   -0.000015
      3          6           0        1.472649    1.206165   -0.000011
      4          9           0        2.142463    2.361835   -0.000019
      5          6           0        0.080031    1.202452   -0.000005
      6          9           0       -0.564010    2.370849    0.000001
      7          6           0       -0.626310    0.000009    0.000003
      8         35           0       -2.509292   -0.000000    0.000019
      9          6           0        0.080033   -1.202450   -0.000004
     10          9           0       -0.564040   -2.370834    0.000006
     11          6           0        1.472635   -1.206177   -0.000011
     12          9           0        2.142466   -2.361831   -0.000017
 ---------------------------------------------------------------------

 SCF Done:  E(RM062X) =  -3302.04695360     A.U. after    1 cycles

      1  F    Isotropic =   334.9866   Anisotropy =   196.9325

      2  C    Isotropic =    23.7700   Anisotropy =   110.4502

      3  C    Isotropic =    27.3307   Anisotropy =   105.1686

      4  F    Isotropic =   342.8659   Anisotropy =   175.0758

      5  C    Isotropic =    19.3768   Anisotropy =   113.6044

      6  F    Isotropic =   309.7472   Anisotropy =   156.3180

      7  C    Isotropic =    57.5375   Anisotropy =   110.9332

      8  Br   Isotropic =  2251.7491   Anisotropy =   836.9209

      9  C    Isotropic =    19.3778   Anisotropy =   113.6028

     10  F    Isotropic =   309.7477   Anisotropy =   156.3126

     11  C    Isotropic =    27.3311   Anisotropy =   105.1688

     12  F    Isotropic =   342.8666   Anisotropy =   175.0795

 The electronic state is 1-A.
 Alpha  occ. eigenvalues -- -485.40686 -63.39137 -57.21109 -57.20837 -57.20825
 Alpha  occ. eigenvalues --  -25.30110 -25.29833 -25.29833 -25.29830 -25.29829
 Alpha  occ. eigenvalues --  -10.68055 -10.68055 -10.68033 -10.67618 -10.67610
 Alpha  occ. eigenvalues --  -10.64284  -9.05780  -6.88277  -6.87267  -6.87225
 Alpha  occ. eigenvalues --   -2.91654  -2.91294  -2.91249  -2.90309  -2.90309
 Alpha  occ. eigenvalues --   -1.42680  -1.42095  -1.41567  -1.40729  -1.40321
 Alpha  occ. eigenvalues --   -1.03157  -0.94459  -0.90060  -0.86403  -0.77936
 Alpha  occ. eigenvalues --   -0.76916  -0.70594  -0.70526  -0.68153  -0.64944
 Alpha  occ. eigenvalues --   -0.64655  -0.64064  -0.62978  -0.61633  -0.60679
 Alpha  occ. eigenvalues --   -0.58960  -0.58468  -0.56685  -0.56130  -0.54892
 Alpha  occ. eigenvalues --   -0.52467  -0.48684  -0.48021  -0.46730  -0.40233
 Alpha  occ. eigenvalues --   -0.37910  -0.33181  -0.32386
 Alpha virt. eigenvalues --   -0.01475  -0.01044  -0.00183   0.05317   0.09566
 Alpha virt. eigenvalues --    0.11599   0.15531   0.17491   0.18539   0.19107
 Alpha virt. eigenvalues --    0.20287   0.20404   0.21110   0.22648   0.25391

 Mulliken charges:
               1
     1  F   -0.166065
     2  C    0.170123
     3  C    0.168126
     4  F   -0.169457
     5  C    0.235902
     6  F   -0.169882
     7  C   -0.131956
     8  Br  -0.001483
     9  C    0.235902
    10  F   -0.169885
    11  C    0.168128
    12  F   -0.169454
 Sum of Mulliken charges =  -0.00000

 Dipole moment (field-independent basis, Debye):
    X=             -0.5372    Y=             -0.0000    Z=             -0.0000  Tot=              0.5372
 Quadrupole moment (field-independent basis, Debye-Ang):
   XX=            -78.7887   YY=            -83.1655   ZZ=            -74.2416
   XY=             -0.0001   XZ=              0.0000   YZ=              0.0000

 Normal termination of Gaussian 16 at Tue Sep 17 10:26:25 2024.
