 Gaussian 16, Revision C.02,

 ----------------------------------------------------------------------
 #p B3LYP/6-31G(d,p) EmpiricalDispersion=GD3BJ opt freq scf(xqc,tight)
 integral(grid=ultrafine)
 ----------------------------------------------------------------------

 ----------------------------------
 opt-freq conformers_unique/conf_ab
 ----------------------------------
 Symbolic Z-matrix:
 Charge =  0 Multiplicity = 1

 SCF Done:  E(RB3LYP) =  -3067.72104639     A.U. after   14 cycles
 SCF Done:  E(RB3LYP) =  -3067.72358116     A.U. after   12 cycles
 SCF Done:  E(RB3LYP) =  -3067.72372515     A.U. after   11 cycles
 SCF Done:  E(RB3LYP) =  -3067.72377177     A.U. after   11 cycles
 SCF Done:  E(RB3LYP) =  -3067.72378818     A.U. after   10 cycles
 SCF Done:  E(RB3LYP) =  -3067.72380202     A.U. after   11 cycles
 SCF Done:  E(RB3LYP) =  -3067.72380620     A.U. after   10 cycles
 SCF Done:  E(RB3LYP) =  -3067.72380775     A.U. after    9 cycles
 SCF Done:  E(RB3LYP) =  -3067.72381625     A.U. after   10 cycles
 SCF Done:  E(RB3LYP) =  -3067.72383723     A.U. after   12 cycles
 SCF Done:  E(RB3LYP) =  -3067.72571041     A.U. after   14 cycles
 SCF Done:  E(RB3LYP) =  -3067.72578364     A.U. after   12 cycles
 SCF Done:  E(RB3LYP) =  -3067.72580218     A.U. after   11 cycles
 SCF Done:  E(RB3LYP) =  -3067.72580606     A.U. after    9 cycles
 SCF Done:  E(RB3LYP) =  -3067.72580665     A.U. after    9 cycles
 SCF Done:  E(RB3LYP) =  -3067.72580677     A.U. after    8 cycles
 SCF Done:  E(RB3LYP) =  -3067.72580700     A.U. after    8 cycles
 Optimization completed.
    -- Stationary point found.
 Normal termination of Gaussian 16 at Tue Sep 17 10:02:38 2024.

 ----------------------------------------------------------------------
 #P Geom=AllCheck Guess=TCheck SCRF=Check GenChk RB3LYP/6-31G(d,p) Freq
 ----------------------------------------------------------------------

 Structure from the checkpoint file:  "smiles_00124_conf_1.chk"
 ----------------------------------
 opt-freq conformers_unique/conf_ab
 ----------------------------------
 Charge =  0 Multiplicity = 1

 SCF Done:  E(RB3LYP) =  -3067.72580700     A.U. after    1 cycles

                      1                      2                      3
                      A                      A                      A
 Frequencies --     21.5724                27.7234                51.9337
 Red. masses --      4.1944                 6.6427                 4.6153
 Frc consts  --      0.0012                 0.0030                 0.0073
 IR Inten    --      0.1580                 0.4157                 1.8237

                      4                      5                      6
                      A                      A                      A
 Frequencies --    154.6416               174.2118               233.9886
 Red. masses --      5.6939                 5.9496                 4.9082
 Frc consts  --      0.0802                 0.1064                 0.1583
 IR Inten    --      0.1855                 0.1650                 0.9336

                      7                      8                      9
                      A                      A                      A
 Frequencies --    279.8413               309.7318               368.3417
 Red. masses --      3.9582                 8.6389                 5.9280
 Frc consts  --      0.1826                 0.4883                 0.4739
 IR Inten    --      1.1547                 1.9165                 1.1810

                     10                     11                     12
                      A                      A                      A
 Frequencies --    400.4181               415.8459               477.1921
 Red. masses --      2.4987                 2.9754                 3.5039
 Frc consts  --      0.2360                 0.3032                 0.4701
 IR Inten    --      2.9963                 0.2777                 4.1537

                     13                     14                     15
                      A                      A                      A
 Frequencies --    585.5969               630.3958               637.7375
 Red. masses --      4.9244                 4.1192                 4.2110
 Frc consts  --      0.9949                 0.9645                 1.0091
 IR Inten    --      2.4008                10.0635                10.9239

                     16                     17                     18
                      A                      A                      A
 Frequencies --    669.4390               711.1943               738.4208
 Red. masses --      6.6075                 2.8629                 1.5452
 Frc consts  --      1.7447                 0.8532                 0.4964
 IR Inten    --      2.2515                 5.6662                58.0965

                     19                     20                     21
                      A                      A                      A
 Frequencies --    790.3174               802.0795               827.5064
 Red. masses --      2.1285                 1.7626                 4.0343
 Frc consts  --      0.7833                 0.6681                 1.6277
 IR Inten    --      4.9573                13.7348                 1.1783

                     22                     23                     24
                      A                      A                      A
 Frequencies --    865.1540               872.2707               922.7543
 Red. masses --      1.2464                 1.3416                 1.3887
 Frc consts  --      0.5497                 0.6014                 0.6967
 IR Inten    --      0.1236                14.6056                 3.2693

                     25                     26                     27
                      A                      A                      A
 Frequencies --    966.1568               977.5428               980.2733
 Red. masses --      2.2747                 3.5392                 1.5948
 Frc consts  --      1.2511                 1.9926                 0.9029
 IR Inten    --     24.1259                36.2461                 5.7418

                     28                     29                     30
                      A                      A                      A
 Frequencies --   1004.7757              1015.7039              1022.0646
 Red. masses --      1.3094                 3.3677                 5.2713
 Frc consts  --      0.7789                 2.0470                 3.2443
 IR Inten    --      0.2174                17.6228                 2.5730

                     31                     32                     33
                      A                      A                      A
 Frequencies --   1058.6636              1113.3516              1135.6267
 Red. masses --      2.2085                 1.5853                 1.7061
 Frc consts  --      1.4584                 1.1578                 1.2964
 IR Inten    --      3.6702                 3.2189                 4.1467

                     34                     35                     36
                      A                      A                      A
 Frequencies --   1177.4098              1189.6039              1210.8122
 Red. masses --      1.3597                 1.1008                 1.1308
 Frc consts  --      1.1106                 0.9179                 0.9767
 IR Inten    --      9.8491                 0.2725                 2.7278

                     37                     38                     39
                      A                      A                      A
 Frequencies --   1221.5786              1232.3469              1333.5027
 Red. masses --      1.7909                 2.3354                 2.4552
 Frc consts  --      1.5746                 2.0897                 2.5724
 IR Inten    --     13.0626                 4.8954                11.6040

                     40                     41                     42
                      A                      A                      A
 Frequencies --   1350.5756              1367.0862              1377.9096
 Red. masses --      2.9894                 2.2317                 3.2830
 Frc consts  --      3.2127                 2.4574                 3.6725
 IR Inten    --     64.3731                 1.7025                 4.8323

                     43                     44                     45
                      A                      A                      A
 Frequencies --   1395.8221              1423.3459              1467.1071
 Red. masses --      1.5936                 4.3890                 2.4011
 Frc consts  --      1.8294                 5.2388                 3.0449
 IR Inten    --     31.4923                15.8592                18.0789

                     46                     47                     48
                      A                      A                      A
 Frequencies --   1492.1113              1501.3007              1543.0732
 Red. masses --      1.4655                 2.0775                 2.2507
 Frc consts  --      1.9224                 2.7588                 3.1575
 IR Inten    --      8.1246                18.8751                 9.8629

                     49                     50                     51
                      A                      A                      A
 Frequencies --   1568.8315              1647.2347              1666.5369
 Red. masses --      4.6244                 5.6992                 5.5969
 Frc consts  --      6.7059                 9.1113                 9.1585
 IR Inten    --      3.6987                 1.3612                 2.9836

                     52                     53                     54
                      A                      A                      A
 Frequencies --   3072.9153              3126.0780              3172.9832
 Red. masses --      1.0604                 1.1049                 1.0875
 Frc consts  --      5.8998                 6.3616                 6.4506
 IR Inten    --     23.7177                 3.0173                 8.5765

                     55                     56                     57
                      A                      A                      A
 Frequencies --   3184.4607              3193.6914              3202.1383
 Red. masses --      1.0866                 1.0905                 1.0944
 Frc consts  --      6.4919                 6.5534                 6.6113
 IR Inten    --      0.6072                13.3235                20.3697

                     58                     59                     60
                      A                      A                      A
 Frequencies --   3210.4582              3272.1003              3289.1330
 Red. masses --      1.0985                 1.0973                 1.0990
 Frc consts  --      6.6712                 6.9217                 7.0052
 IR Inten    --     17.2218                 1.0042                 0.7833

 - Thermochemistry -
 -------------------
 Temperature   298.150 Kelvin.  Pressure   1.00000 Atm.
 Atom     1 has atomic number 35 and mass  78.91834

 Molecular mass:   235.99491 amu.
 Principal axes and moments of inertia in atomic units:
                           1         2         3
     Eigenvalues --  1314.242907446.594197824.76643
           X            0.99973   0.02285   0.00448
           Y           -0.02267   0.99911  -0.03554
           Z           -0.00529   0.03543   0.99936
 This molecule is an asymmetric top.
 Rotational symmetry number  1.
 Warning -- assumption of classical behavior for rotation
           may cause significant error
 Rotational temperatures (Kelvin)      0.06590     0.01163     0.01107
 Rotational constants (GHZ):           1.37322     0.24236     0.23064
 Zero-point vibrational energy     449392.8 (Joules/Mol)
                                  107.40747 (Kcal/Mol)
 Warning -- explicit consideration of  13 degrees of freedom as
           vibrations may cause significant error
 Vibrational temperatures:     31.04    39.89    74.72   222.49   250.65
          (Kelvin)            336.66   402.63   445.64   529.96   576.11
                              598.31   686.57   842.54   907.00   917.56
                              963.17  1023.25  1062.42  1137.09  1154.01
                             1190.60  1244.76  1255.00  1327.64  1390.08
                             1406.47  1410.39  1445.65  1461.37  1470.52
                             1523.18  1601.86  1633.91  1694.03  1711.57
                             1742.09  1757.58  1773.07  1918.61  1943.18
                             1966.93  1982.50  2008.28  2047.88  2110.84
                             2146.82  2160.04  2220.14  2257.20  2370.00
                             2397.77  4421.24  4497.73  4565.22  4581.73
                             4595.01  4607.16  4619.13  4707.82  4732.33

 Zero-point correction=                           0.171165 (Hartree/Particle)
 Thermal correction to Energy=                    0.182040
 Thermal correction to Enthalpy=                  0.182985
 Thermal correction to Gibbs Free Energy=         0.130727
 Sum of electronic and zero-point Energies=          -3067.554642
 Sum of electronic and thermal Energies=             -3067.543767
 Sum of electronic and thermal Enthalpies=           -3067.542822
 Sum of electronic and thermal Free Energies=        -3067.595080

                     E (Thermal)             CV                S
                      KCal/Mol        Cal/Mol-Kelvin    Cal/Mol-Kelvin
 Total                  114.232             40.781            109.986
 Electronic               0.000              0.000              0.000
 Translational            0.889              2.981             42.277
 Rotational               0.889              2.981             32.704
 Vibrational            112.455             34.819             35.004
 Vibration     1          0.593              1.985              6.484
 Vibration     2          0.593              1.984              5.986
 Vibration     3          0.596              1.977              4.742
 Vibration     4          0.620              1.897              2.614
 Vibration     5          0.627              1.874              2.390
 Vibration     6          0.654              1.789              1.848
 Vibration     7          0.680              1.711              1.535
 Vibration     8          0.699              1.655              1.364
 Vibration     9          0.741              1.537              1.087
 Vibration    10          0.766              1.469              0.961
 Vibration    11          0.779              1.436              0.906
 Vibration    12          0.834              1.301              0.718
 Vibration    13          0.943              1.063              0.475

 Optimization completed.
    -- Stationary point found.
 Normal termination of Gaussian 16 at Tue Sep 17 10:04:05 2024.

 ----------------------------------------------------------------------
 #p M062X/def2tzvp geom=check guess=read scf(xqc,tight) integral(grid=u
 ltrafine) scrf(SMD, solvent=1,4-Dioxane) polar prop=efg volume
 ----------------------------------------------------------------------

 ---
 spe
 ---
 Structure from the checkpoint file:  "smiles_00124_conf_1.chk"
 Charge =  0 Multiplicity = 1

 SCF Done:  E(RM062X) =  -3070.13978644     A.U. after   12 cycles

  Exact polarizability:     200.377       9.385     141.145      13.722       0.829     154.317
 Approx polarizability:     195.908       6.322     165.973      16.371       3.477     187.037

 Normal termination of Gaussian 16 at Tue Sep 17 10:51:29 2024.
 Gaussian 16:  ES64L-G16RevC.02  7-Dec-2021

 ----------------------------------------------------------------------
 #p M062X/def2tzvp geom=check guess=read scf(xqc,tight) integral(grid=u
 ltrafine) scrf(SMD, solvent=1,4-Dioxane) nmr=giao
 ----------------------------------------------------------------------

 ---
 spe
 ---
 Structure from the checkpoint file:  "smiles_00124_conf_1.chk"
 Charge =  0 Multiplicity = 1

                         Standard orientation:
 ---------------------------------------------------------------------
 Center     Atomic      Atomic             Coordinates (Angstroms)
 Number     Number       Type             X           Y           Z
 ---------------------------------------------------------------------
      1         35           0       -3.408990    0.799534    0.119441
      2          6           0       -1.882780   -0.290382   -0.044628
      3          6           0       -1.632000   -1.274578   -1.021822
      4          7           0       -0.447616   -1.851901   -0.816178
      5          7           0        0.050596   -1.251503    0.290293
      6          6           0        1.404578   -1.561535    0.727878
      7          6           0        2.412805   -0.516360    0.298062
      8          6           0        2.430769   -0.059462   -1.025030
      9          6           0        3.366286    0.891479   -1.424567
     10          6           0        4.294992    1.392609   -0.508928
     11          6           0        4.280940    0.940373    0.809438
     12          6           0        3.338985   -0.008445    1.211151
     13          6           0       -0.776256   -0.293086    0.782653
     14          1           0       -2.262245   -1.579405   -1.844229
     15          1           0        1.404923   -1.670130    1.816348
     16          1           0        1.631923   -2.537179    0.291169
     17          1           0        1.704114   -0.449859   -1.731029
     18          1           0        3.372097    1.242955   -2.451764
     19          1           0        5.023067    2.134254   -0.822587
     20          1           0        4.995788    1.329640    1.527865
     21          1           0        3.324094   -0.354886    2.241415
     22          1           0       -0.529890    0.301081    1.648321
 ---------------------------------------------------------------------

 SCF Done:  E(RM062X) =  -3070.13978644     A.U. after    1 cycles

      1  Br   Isotropic =  2346.1226   Anisotropy =   944.9209

      2  C    Isotropic =    58.9407   Anisotropy =    93.5101

      3  C    Isotropic =    24.5607   Anisotropy =   144.7501

      4  N    Isotropic =  -129.9610   Anisotropy =   387.5404

      5  N    Isotropic =   -10.0516   Anisotropy =   198.9377

      6  C    Isotropic =   123.7480   Anisotropy =    43.5162

      7  C    Isotropic =    21.9605   Anisotropy =   223.5567

      8  C    Isotropic =    35.5401   Anisotropy =   219.8341

      9  C    Isotropic =    33.4465   Anisotropy =   221.2100

     10  C    Isotropic =    34.4953   Anisotropy =   218.7124

     11  C    Isotropic =    34.7774   Anisotropy =   216.6829

     12  C    Isotropic =    37.0531   Anisotropy =   194.9818

     13  C    Isotropic =    35.6999   Anisotropy =   141.9324

     14  H    Isotropic =    23.6848   Anisotropy =     5.9549

     15  H    Isotropic =    26.6224   Anisotropy =     6.7261

     16  H    Isotropic =    26.1078   Anisotropy =     4.6984

     17  H    Isotropic =    23.7724   Anisotropy =    11.9997

     18  H    Isotropic =    23.6731   Anisotropy =     7.0312

     19  H    Isotropic =    23.6962   Anisotropy =     5.5768

     20  H    Isotropic =    23.6312   Anisotropy =     5.8903

     21  H    Isotropic =    23.6710   Anisotropy =     8.0051

     22  H    Isotropic =    23.9230   Anisotropy =     8.7286

 The electronic state is 1-A.
 Alpha  occ. eigenvalues -- -485.37910 -63.36380 -57.18334 -57.18085 -57.18082
 Alpha  occ. eigenvalues --  -14.83818 -14.78201 -10.59186 -10.58888 -10.58675
 Alpha  occ. eigenvalues --  -10.56896 -10.55866 -10.54844 -10.54691 -10.54623
 Alpha  occ. eigenvalues --  -10.54517 -10.54469  -9.03033  -6.85472  -6.84544
 Alpha  occ. eigenvalues --   -6.84534  -2.88851  -2.88503  -2.88500  -2.87630
 Alpha  occ. eigenvalues --   -2.87630  -1.17492  -0.97783  -0.94921  -0.92249
 Alpha  occ. eigenvalues --   -0.87301  -0.84684  -0.84062  -0.77902  -0.69560
 Alpha  occ. eigenvalues --   -0.68482  -0.67731  -0.65495  -0.60843  -0.59249
 Alpha  occ. eigenvalues --   -0.55260  -0.52927  -0.52625  -0.51693  -0.49142
 Alpha  occ. eigenvalues --   -0.48726  -0.48000  -0.47157  -0.46320  -0.43607
 Alpha  occ. eigenvalues --   -0.41298  -0.40404  -0.38956  -0.38479  -0.34804
 Alpha  occ. eigenvalues --   -0.32584  -0.31358  -0.30536  -0.29253
 Alpha virt. eigenvalues --    0.01025   0.01541   0.03488   0.04812   0.07694
 Alpha virt. eigenvalues --    0.08120   0.09333   0.10881   0.11664   0.12331
 Alpha virt. eigenvalues --    0.12613   0.13618   0.13812   0.14781   0.15523

 Mulliken charges:
               1
     1  Br  -0.094128
     2  C   -0.084904
     3  C   -0.076740
     4  N   -0.277828
     5  N    0.097585
     6  C   -0.299028
     7  C    0.096579
     8  C   -0.185126
     9  C   -0.154928
    10  C   -0.172092
    11  C   -0.153684
    12  C   -0.207964
    13  C   -0.093604
    14  H    0.178650
    15  H    0.188646
    16  H    0.198366
    17  H    0.187596
    18  H    0.163781
    19  H    0.163217
    20  H    0.162144
    21  H    0.163056
    22  H    0.200407
 Sum of Mulliken charges =  -0.00000

 Dipole moment (field-independent basis, Debye):
    X=              2.6698    Y=              0.4452    Z=              1.7330  Tot=              3.2139
 Quadrupole moment (field-independent basis, Debye-Ang):
   XX=            -86.6803   YY=            -90.8202   ZZ=            -81.3997
   XY=              3.2168   XZ=              4.2032   YZ=             -3.1231

 Normal termination of Gaussian 16 at Tue Sep 17 11:09:11 2024.
