 Gaussian 16, Revision C.02,

 ----------------------------------------------------------------------
 #p B3LYP/6-31G(d,p) EmpiricalDispersion=GD3BJ opt freq scf(xqc,tight)
 integral(grid=ultrafine)
 ----------------------------------------------------------------------

 ----------------------------------
 opt-freq conformers_unique/conf_aa
 ----------------------------------
 Symbolic Z-matrix:
 Charge =  0 Multiplicity = 1

 SCF Done:  E(RB3LYP) =  -3067.72300825     A.U. after   14 cycles
 SCF Done:  E(RB3LYP) =  -3067.72553100     A.U. after   12 cycles
 SCF Done:  E(RB3LYP) =  -3067.72566259     A.U. after   11 cycles
 SCF Done:  E(RB3LYP) =  -3067.72571158     A.U. after   11 cycles
 SCF Done:  E(RB3LYP) =  -3067.72573347     A.U. after   10 cycles
 SCF Done:  E(RB3LYP) =  -3067.72576390     A.U. after   11 cycles
 SCF Done:  E(RB3LYP) =  -3067.72578697     A.U. after   11 cycles
 SCF Done:  E(RB3LYP) =  -3067.72580001     A.U. after   10 cycles
 SCF Done:  E(RB3LYP) =  -3067.72580406     A.U. after    9 cycles
 SCF Done:  E(RB3LYP) =  -3067.72580549     A.U. after    8 cycles
 SCF Done:  E(RB3LYP) =  -3067.72580626     A.U. after    8 cycles
 SCF Done:  E(RB3LYP) =  -3067.72580679     A.U. after    9 cycles
 SCF Done:  E(RB3LYP) =  -3067.72580693     A.U. after    8 cycles
 SCF Done:  E(RB3LYP) =  -3067.72580696     A.U. after    7 cycles
 SCF Done:  E(RB3LYP) =  -3067.72580698     A.U. after    7 cycles
 Optimization completed.
    -- Stationary point found.
 Normal termination of Gaussian 16 at Tue Sep 17 10:00:30 2024.

 ----------------------------------------------------------------------
 #P Geom=AllCheck Guess=TCheck SCRF=Check GenChk RB3LYP/6-31G(d,p) Freq
 ----------------------------------------------------------------------

 Structure from the checkpoint file:  "smiles_00124_conf_0.chk"
 ----------------------------------
 opt-freq conformers_unique/conf_aa
 ----------------------------------
 Charge =  0 Multiplicity = 1

 SCF Done:  E(RB3LYP) =  -3067.72580698     A.U. after    1 cycles

                      1                      2                      3
                      A                      A                      A
 Frequencies --     21.4930                27.7069                51.8965
 Red. masses --      4.1956                 6.6362                 4.6168
 Frc consts  --      0.0011                 0.0030                 0.0073
 IR Inten    --      0.1589                 0.4169                 1.8210

                      4                      5                      6
                      A                      A                      A
 Frequencies --    154.6365               174.2014               233.9795
 Red. masses --      5.6940                 5.9500                 4.9094
 Frc consts  --      0.0802                 0.1064                 0.1584
 IR Inten    --      0.1856                 0.1653                 0.9331

                      7                      8                      9
                      A                      A                      A
 Frequencies --    279.8497               309.7076               368.3297
 Red. masses --      3.9580                 8.6370                 5.9287
 Frc consts  --      0.1826                 0.4881                 0.4739
 IR Inten    --      1.1540                 1.9174                 1.1809

                     10                     11                     12
                      A                      A                      A
 Frequencies --    400.4178               415.8412               477.1919
 Red. masses --      2.4983                 2.9754                 3.5041
 Frc consts  --      0.2360                 0.3031                 0.4701
 IR Inten    --      2.9955                 0.2779                 4.1546

                     13                     14                     15
                      A                      A                      A
 Frequencies --    585.5936               630.3882               637.7305
 Red. masses --      4.9243                 4.1165                 4.2141
 Frc consts  --      0.9949                 0.9638                 1.0098
 IR Inten    --      2.4016                10.0836                10.9023

                     16                     17                     18
                      A                      A                      A
 Frequencies --    669.4310               711.1911               738.4120
 Red. masses --      6.6068                 2.8626                 1.5453
 Frc consts  --      1.7444                 0.8531                 0.4964
 IR Inten    --      2.2502                 5.6684                58.0999

                     19                     20                     21
                      A                      A                      A
 Frequencies --    790.3328               802.0880               827.5020
 Red. masses --      2.1290                 1.7623                 4.0341
 Frc consts  --      0.7835                 0.6680                 1.6275
 IR Inten    --      4.9563                13.7278                 1.1786

                     22                     23                     24
                      A                      A                      A
 Frequencies --    865.1453               872.2756               922.7532
 Red. masses --      1.2464                 1.3417                 1.3888
 Frc consts  --      0.5497                 0.6014                 0.6967
 IR Inten    --      0.1236                14.6019                 3.2719

                     25                     26                     27
                      A                      A                      A
 Frequencies --    966.1460               977.5406               980.2673
 Red. masses --      2.2744                 3.5365                 1.5955
 Frc consts  --      1.2508                 1.9911                 0.9033
 IR Inten    --     24.1102                36.2386                 5.7660

                     28                     29                     30
                      A                      A                      A
 Frequencies --   1004.7708              1015.7126              1022.0684
 Red. masses --      1.3094                 3.3687                 5.2692
 Frc consts  --      0.7788                 2.0476                 3.2431
 IR Inten    --      0.2162                17.6184                 2.5808

                     31                     32                     33
                      A                      A                      A
 Frequencies --   1058.6660              1113.3497              1135.6326
 Red. masses --      2.2086                 1.5853                 1.7062
 Frc consts  --      1.4584                 1.1578                 1.2965
 IR Inten    --      3.6697                 3.2201                 4.1493

                     34                     35                     36
                      A                      A                      A
 Frequencies --   1177.4303              1189.6039              1210.8079
 Red. masses --      1.3596                 1.1008                 1.1308
 Frc consts  --      1.1105                 0.9179                 0.9767
 IR Inten    --      9.8445                 0.2731                 2.7273

                     37                     38                     39
                      A                      A                      A
 Frequencies --   1221.5749              1232.3340              1333.5014
 Red. masses --      1.7915                 2.3347                 2.4556
 Frc consts  --      1.5751                 2.0890                 2.5727
 IR Inten    --     13.0543                 4.9101                11.6130

                     40                     41                     42
                      A                      A                      A
 Frequencies --   1350.5790              1367.0864              1377.9139
 Red. masses --      2.9865                 2.2320                 3.2832
 Frc consts  --      3.2096                 2.4578                 3.6728
 IR Inten    --     64.3561                 1.7003                 4.8319

                     43                     44                     45
                      A                      A                      A
 Frequencies --   1395.8165              1423.3487              1467.1566
 Red. masses --      1.5939                 4.3892                 2.3965
 Frc consts  --      1.8297                 5.2391                 3.0394
 IR Inten    --     31.5068                15.8475                18.0665

                     46                     47                     48
                      A                      A                      A
 Frequencies --   1492.1289              1501.3044              1543.0700
 Red. masses --      1.4674                 2.0773                 2.2507
 Frc consts  --      1.9249                 2.7586                 3.1575
 IR Inten    --      8.1316                18.8954                 9.8633

                     49                     50                     51
                      A                      A                      A
 Frequencies --   1568.8420              1647.2375              1666.5383
 Red. masses --      4.6245                 5.6994                 5.5970
 Frc consts  --      6.7062                 9.1115                 9.1587
 IR Inten    --      3.7027                 1.3610                 2.9826

                     52                     53                     54
                      A                      A                      A
 Frequencies --   3072.9292              3126.0868              3173.0036
 Red. masses --      1.0604                 1.1049                 1.0875
 Frc consts  --      5.8998                 6.3617                 6.4507
 IR Inten    --     23.7118                 3.0196                 8.5730

                     55                     56                     57
                      A                      A                      A
 Frequencies --   3184.4790              3193.7100              3202.1583
 Red. masses --      1.0866                 1.0905                 1.0944
 Frc consts  --      6.4920                 6.5535                 6.6114
 IR Inten    --      0.6102                13.3344                20.3681

                     58                     59                     60
                      A                      A                      A
 Frequencies --   3210.4753              3272.1248              3289.1340
 Red. masses --      1.0985                 1.0973                 1.0990
 Frc consts  --      6.6713                 6.9218                 7.0052
 IR Inten    --     17.2127                 1.0051                 0.7827

 - Thermochemistry -
 -------------------
 Temperature   298.150 Kelvin.  Pressure   1.00000 Atm.
 Atom     1 has atomic number 35 and mass  78.91834

 Molecular mass:   235.99491 amu.
 Principal axes and moments of inertia in atomic units:
                           1         2         3
     Eigenvalues --  1314.117067447.370747825.31634
           X            0.99973   0.02285   0.00448
           Y           -0.02267   0.99911  -0.03548
           Z           -0.00528   0.03537   0.99936
 This molecule is an asymmetric top.
 Rotational symmetry number  1.
 Warning -- assumption of classical behavior for rotation
           may cause significant error
 Rotational temperatures (Kelvin)      0.06591     0.01163     0.01107
 Rotational constants (GHZ):           1.37335     0.24233     0.23063
 Zero-point vibrational energy     449392.9 (Joules/Mol)
                                  107.40748 (Kcal/Mol)
 Warning -- explicit consideration of  13 degrees of freedom as
           vibrations may cause significant error
 Vibrational temperatures:     30.92    39.86    74.67   222.49   250.64
          (Kelvin)            336.64   402.64   445.60   529.94   576.11
                              598.30   686.57   842.54   906.99   917.55
                              963.16  1023.25  1062.41  1137.11  1154.03
                             1190.59  1244.75  1255.01  1327.64  1390.07
                             1406.46  1410.39  1445.64  1461.38  1470.53
                             1523.18  1601.86  1633.92  1694.06  1711.57
                             1742.08  1757.57  1773.05  1918.61  1943.18
                             1966.93  1982.51  2008.27  2047.88  2110.91
                             2146.84  2160.04  2220.13  2257.21  2370.01
                             2397.78  4421.26  4497.74  4565.24  4581.75
                             4595.04  4607.19  4619.16  4707.86  4732.33

 Zero-point correction=                           0.171165 (Hartree/Particle)
 Thermal correction to Energy=                    0.182041
 Thermal correction to Enthalpy=                  0.182985
 Thermal correction to Gibbs Free Energy=         0.130722
 Sum of electronic and zero-point Energies=          -3067.554642
 Sum of electronic and thermal Energies=             -3067.543766
 Sum of electronic and thermal Enthalpies=           -3067.542822
 Sum of electronic and thermal Free Energies=        -3067.595085

                     E (Thermal)             CV                S
                      KCal/Mol        Cal/Mol-Kelvin    Cal/Mol-Kelvin
 Total                  114.232             40.781            109.996
 Electronic               0.000              0.000              0.000
 Translational            0.889              2.981             42.277
 Rotational               0.889              2.981             32.704
 Vibrational            112.455             34.819             35.015
 Vibration     1          0.593              1.985              6.491
 Vibration     2          0.593              1.984              5.987
 Vibration     3          0.596              1.977              4.744
 Vibration     4          0.620              1.898              2.614
 Vibration     5          0.627              1.874              2.390
 Vibration     6          0.654              1.789              1.848
 Vibration     7          0.680              1.711              1.535
 Vibration     8          0.699              1.655              1.364
 Vibration     9          0.741              1.537              1.087
 Vibration    10          0.766              1.469              0.961
 Vibration    11          0.779              1.436              0.906
 Vibration    12          0.834              1.301              0.718
 Vibration    13          0.943              1.063              0.475

 Optimization completed.
    -- Stationary point found.
 Normal termination of Gaussian 16 at Tue Sep 17 10:02:36 2024.

 ----------------------------------------------------------------------
 #p M062X/def2tzvp geom=check guess=read scf(xqc,tight) integral(grid=u
 ltrafine) scrf(SMD, solvent=1,4-Dioxane) polar prop=efg volume
 ----------------------------------------------------------------------

 ---
 spe
 ---
 Structure from the checkpoint file:  "smiles_00124_conf_0.chk"
 Charge =  0 Multiplicity = 1

 SCF Done:  E(RM062X) =  -3070.13978669     A.U. after   12 cycles

  Exact polarizability:     200.379       9.393     141.137      13.709       0.844     154.323
 Approx polarizability:     195.907       6.332     165.967      16.357       3.496     187.042

 Normal termination of Gaussian 16 at Tue Sep 17 10:51:39 2024.
 Gaussian 16:  ES64L-G16RevC.02  7-Dec-2021

 ----------------------------------------------------------------------
 #p M062X/def2tzvp geom=check guess=read scf(xqc,tight) integral(grid=u
 ltrafine) scrf(SMD, solvent=1,4-Dioxane) nmr=giao
 ----------------------------------------------------------------------

 ---
 spe
 ---
 Structure from the checkpoint file:  "smiles_00124_conf_0.chk"
 Charge =  0 Multiplicity = 1

                         Standard orientation:
 ---------------------------------------------------------------------
 Center     Atomic      Atomic             Coordinates (Angstroms)
 Number     Number       Type             X           Y           Z
 ---------------------------------------------------------------------
      1         35           0        3.409197   -0.799486   -0.119169
      2          6           0        1.882874    0.290339    0.044584
      3          6           0        1.631962    1.274774    1.021497
      4          7           0        0.447554    1.851962    0.815676
      5          7           0       -0.050605    1.251171   -0.290617
      6          6           0       -1.404525    1.561173   -0.728421
      7          6           0       -2.412906    0.516257   -0.298283
      8          6           0       -2.431208    0.060101    1.025062
      9          6           0       -3.366805   -0.890634    1.424889
     10          6           0       -4.295260   -1.392305    0.509292
     11          6           0       -4.280894   -0.940790   -0.809313
     12          6           0       -3.338867    0.007834   -1.211312
     13          6           0        0.776330    0.292727   -0.782692
     14          1           0        2.262152    1.579885    1.843839
     15          1           0       -1.631805    2.537013   -0.292115
     16          1           0       -1.404785    1.669321   -1.816932
     17          1           0       -1.704725    0.450905    1.731010
     18          1           0       -3.372884   -1.241540    2.452277
     19          1           0       -5.023382   -2.133804    0.823182
     20          1           0       -4.995552   -1.330473   -1.527702
     21          1           0       -3.323741    0.353718   -2.241758
     22          1           0        0.529977   -0.301792   -1.648121
 ---------------------------------------------------------------------

 SCF Done:  E(RM062X) =  -3070.13978669     A.U. after    1 cycles

      1  Br   Isotropic =  2346.1064   Anisotropy =   944.9614

      2  C    Isotropic =    58.9432   Anisotropy =    93.5002

      3  C    Isotropic =    24.5615   Anisotropy =   144.7544

      4  N    Isotropic =  -129.9461   Anisotropy =   387.5038

      5  N    Isotropic =   -10.0474   Anisotropy =   198.9370

      6  C    Isotropic =   123.7479   Anisotropy =    43.5087

      7  C    Isotropic =    21.9614   Anisotropy =   223.5574

      8  C    Isotropic =    35.5365   Anisotropy =   219.8343

      9  C    Isotropic =    33.4475   Anisotropy =   221.2090

     10  C    Isotropic =    34.4948   Anisotropy =   218.7128

     11  C    Isotropic =    34.7794   Anisotropy =   216.6862

     12  C    Isotropic =    37.0532   Anisotropy =   194.9826

     13  C    Isotropic =    35.7054   Anisotropy =   141.9276

     14  H    Isotropic =    23.6851   Anisotropy =     5.9551

     15  H    Isotropic =    26.1077   Anisotropy =     4.6984

     16  H    Isotropic =    26.6227   Anisotropy =     6.7255

     17  H    Isotropic =    23.7714   Anisotropy =    11.9979

     18  H    Isotropic =    23.6731   Anisotropy =     7.0305

     19  H    Isotropic =    23.6961   Anisotropy =     5.5771

     20  H    Isotropic =    23.6312   Anisotropy =     5.8903

     21  H    Isotropic =    23.6711   Anisotropy =     8.0048

     22  H    Isotropic =    23.9232   Anisotropy =     8.7287

 The electronic state is 1-A.
 Alpha  occ. eigenvalues -- -485.37910 -63.36380 -57.18334 -57.18085 -57.18082
 Alpha  occ. eigenvalues --  -14.83818 -14.78201 -10.59187 -10.58888 -10.58675
 Alpha  occ. eigenvalues --  -10.56896 -10.55866 -10.54844 -10.54691 -10.54623
 Alpha  occ. eigenvalues --  -10.54517 -10.54469  -9.03033  -6.85472  -6.84544
 Alpha  occ. eigenvalues --   -6.84534  -2.88851  -2.88503  -2.88500  -2.87631
 Alpha  occ. eigenvalues --   -2.87630  -1.17492  -0.97783  -0.94921  -0.92249
 Alpha  occ. eigenvalues --   -0.87302  -0.84684  -0.84062  -0.77902  -0.69560
 Alpha  occ. eigenvalues --   -0.68482  -0.67732  -0.65495  -0.60843  -0.59249
 Alpha  occ. eigenvalues --   -0.55260  -0.52927  -0.52624  -0.51693  -0.49142
 Alpha  occ. eigenvalues --   -0.48726  -0.48000  -0.47157  -0.46320  -0.43607
 Alpha  occ. eigenvalues --   -0.41298  -0.40404  -0.38956  -0.38479  -0.34805
 Alpha  occ. eigenvalues --   -0.32584  -0.31358  -0.30537  -0.29253
 Alpha virt. eigenvalues --    0.01025   0.01541   0.03489   0.04812   0.07694
 Alpha virt. eigenvalues --    0.08120   0.09333   0.10881   0.11664   0.12331
 Alpha virt. eigenvalues --    0.12613   0.13618   0.13811   0.14782   0.15523

 Mulliken charges:
               1
     1  Br  -0.094127
     2  C   -0.084949
     3  C   -0.076723
     4  N   -0.277839
     5  N    0.097614
     6  C   -0.299064
     7  C    0.096585
     8  C   -0.185128
     9  C   -0.154924
    10  C   -0.172087
    11  C   -0.153683
    12  C   -0.207958
    13  C   -0.093571
    14  H    0.178643
    15  H    0.198377
    16  H    0.188648
    17  H    0.187586
    18  H    0.163780
    19  H    0.163217
    20  H    0.162144
    21  H    0.163055
    22  H    0.200403
 Sum of Mulliken charges =  -0.00000

 Dipole moment (field-independent basis, Debye):
    X=             -2.6699    Y=             -0.4458    Z=             -1.7329  Tot=              3.2141
 Quadrupole moment (field-independent basis, Debye-Ang):
   XX=            -86.6817   YY=            -90.8219   ZZ=            -81.3966
   XY=              3.2192   XZ=              4.2002   YZ=             -3.1179

 Normal termination of Gaussian 16 at Tue Sep 17 11:09:04 2024.
