 Gaussian 16, Revision C.02,

 ----------------------------------------------------------------------
 #p B3LYP/6-31G(d,p) EmpiricalDispersion=GD3BJ opt freq scf(xqc,tight)
 integral(grid=ultrafine)
 ----------------------------------------------------------------------

 ----------------------------------
 opt-freq conformers_unique/conf_ad
 ----------------------------------
 Symbolic Z-matrix:
 Charge =  0 Multiplicity = 1

 SCF Done:  E(RB3LYP) =  -2972.07087693     A.U. after   15 cycles
 SCF Done:  E(RB3LYP) =  -2972.07326562     A.U. after   14 cycles
 SCF Done:  E(RB3LYP) =  -2972.07371641     A.U. after   13 cycles
 SCF Done:  E(RB3LYP) =  -2972.07446808     A.U. after   13 cycles
 SCF Done:  E(RB3LYP) =  -2972.07487065     A.U. after   13 cycles
 SCF Done:  E(RB3LYP) =  -2972.07529900     A.U. after   16 cycles
 SCF Done:  E(RB3LYP) =  -2972.07578866     A.U. after   13 cycles
 SCF Done:  E(RB3LYP) =  -2972.07625227     A.U. after   12 cycles
 SCF Done:  E(RB3LYP) =  -2972.07664788     A.U. after   13 cycles
 SCF Done:  E(RB3LYP) =  -2972.07671785     A.U. after   12 cycles
 SCF Done:  E(RB3LYP) =  -2972.07679232     A.U. after   11 cycles
 SCF Done:  E(RB3LYP) =  -2972.07680281     A.U. after   10 cycles
 SCF Done:  E(RB3LYP) =  -2972.07680389     A.U. after    8 cycles
 SCF Done:  E(RB3LYP) =  -2972.07680399     A.U. after    8 cycles
 Optimization completed.
    -- Stationary point found.
 Normal termination of Gaussian 16 at Tue Sep 17 09:50:29 2024.

 ----------------------------------------------------------------------
 #P Geom=AllCheck Guess=TCheck SCRF=Check GenChk RB3LYP/6-31G(d,p) Freq
 ----------------------------------------------------------------------

 Structure from the checkpoint file:  "smiles_00104_conf_3.chk"
 ----------------------------------
 opt-freq conformers_unique/conf_ad
 ----------------------------------
 Charge =  0 Multiplicity = 1

 SCF Done:  E(RB3LYP) =  -2972.07680399     A.U. after    1 cycles

                      1                      2                      3
                      A                      A                      A
 Frequencies --     61.1220                74.9782               154.8854
 Red. masses --      3.8063                10.2551                 6.2600
 Frc consts  --      0.0084                 0.0340                 0.0885
 IR Inten    --      0.4585                 0.9250                 2.5545

                      4                      5                      6
                      A                      A                      A
 Frequencies --    167.4264               242.8095               247.9400
 Red. masses --      1.0311                 6.3301                10.8661
 Frc consts  --      0.0170                 0.2199                 0.3936
 IR Inten    --      0.2026                 1.0693                 3.4749

                      7                      8                      9
                      A                      A                      A
 Frequencies --    290.6597               417.7217               422.3936
 Red. masses --      5.2914                 4.1611                 3.4554
 Frc consts  --      0.2634                 0.4278                 0.3632
 IR Inten    --      1.7291                 8.6542                 4.6091

                     10                     11                     12
                      A                      A                      A
 Frequencies --    475.9778               499.3331               605.3765
 Red. masses --      3.3480                 6.0294                 2.5330
 Frc consts  --      0.4469                 0.8857                 0.5469
 IR Inten    --      0.6283                17.4987                 3.6321

                     13                     14                     15
                      A                      A                      A
 Frequencies --    614.6505               640.0619               760.5243
 Red. masses --      4.1194                 8.1546                 5.0051
 Frc consts  --      0.9169                 1.9683                 1.7057
 IR Inten    --      9.6977                 2.4241                 3.9228

                     16                     17                     18
                      A                      A                      A
 Frequencies --    787.8532               849.7294               963.0078
 Red. masses --      6.7370                 1.3581                 2.3039
 Frc consts  --      2.4638                 0.5778                 1.2589
 IR Inten    --     31.1689                21.0712                49.1250

                     19                     20                     21
                      A                      A                      A
 Frequencies --    980.1830               992.8947              1033.4379
 Red. masses --      1.3615                 1.3632                 3.3364
 Frc consts  --      0.7707                 0.7918                 2.0994
 IR Inten    --      3.2497                 0.1089                17.7698

                     22                     23                     24
                      A                      A                      A
 Frequencies --   1049.1790              1100.4400              1123.0414
 Red. masses --      1.8945                 3.5654                 2.4613
 Frc consts  --      1.2287                 2.5439                 1.8290
 IR Inten    --      1.1935                21.9992               149.5744

                     25                     26                     27
                      A                      A                      A
 Frequencies --   1171.6368              1289.3768              1312.3849
 Red. masses --      1.3442                 2.9190                 1.4897
 Frc consts  --      1.0872                 2.8592                 1.5117
 IR Inten    --      2.5695               229.3000                 3.3849

                     28                     29                     30
                      A                      A                      A
 Frequencies --   1317.9736              1390.7954              1417.4963
 Red. masses --      8.5880                 1.4895                 2.5327
 Frc consts  --      8.7893                 1.6975                 2.9984
 IR Inten    --      1.8984                31.2655                33.4197

                     31                     32                     33
                      A                      A                      A
 Frequencies --   1481.3428              1491.6979              1494.1804
 Red. masses --      1.0604                 1.0475                 2.4498
 Frc consts  --      1.3710                 1.3733                 3.2225
 IR Inten    --     11.0992                10.3128                61.3679

                     34                     35                     36
                      A                      A                      A
 Frequencies --   1603.5779              1633.2853              1786.4178
 Red. masses --      6.9095                 5.5871                10.9167
 Frc consts  --     10.4683                 8.7813                20.5262
 IR Inten    --     48.4965               189.9386               167.0038

                     37                     38                     39
                      A                      A                      A
 Frequencies --   3048.9551              3112.0008              3173.2915
 Red. masses --      1.0382                 1.0999                 1.1016
 Frc consts  --      5.6863                 6.2762                 6.5356
 IR Inten    --      2.4542                 7.8890                 8.5848

                     40                     41                     42
                      A                      A                      A
 Frequencies --   3209.5634              3211.2673              3237.7758
 Red. masses --      1.0897                 1.0912                 1.0952
 Frc consts  --      6.6136                 6.6300                 6.7645
 IR Inten    --      4.0289                 1.3914                 0.7616

 - Thermochemistry -
 -------------------
 Temperature   298.150 Kelvin.  Pressure   1.00000 Atm.
 Atom     1 has atomic number  6 and mass  12.00000

 Molecular mass:   198.96327 amu.
 Principal axes and moments of inertia in atomic units:
                           1         2         3
     Eigenvalues --   480.434704782.335945251.54733
           X            0.99990  -0.01389  -0.00000
           Y            0.01389   0.99990  -0.00000
           Z            0.00000   0.00000   1.00000
 This molecule is an asymmetric top.
 Rotational symmetry number  1.
 Warning -- assumption of classical behavior for rotation
           may cause significant error
 Rotational temperatures (Kelvin)      0.18028     0.01811     0.01649
 Rotational constants (GHZ):           3.75648     0.37738     0.34366
 Zero-point vibrational energy     304680.8 (Joules/Mol)
                                   72.82045 (Kcal/Mol)
 Warning -- explicit consideration of  13 degrees of freedom as
           vibrations may cause significant error
 Vibrational temperatures:     87.94   107.88   222.85   240.89   349.35
          (Kelvin)            356.73   418.19   601.01   607.73   684.83
                              718.43   871.00   884.34   920.91  1094.22
                             1133.55  1222.57  1385.55  1410.26  1428.55
                             1486.89  1509.53  1583.29  1615.81  1685.72
                             1855.13  1888.23  1896.27  2001.04  2039.46
                             2131.32  2146.22  2149.79  2307.19  2349.93
                             2570.26  4386.77  4477.48  4565.66  4617.85
                             4620.30  4658.44

 Zero-point correction=                           0.116047 (Hartree/Particle)
 Thermal correction to Energy=                    0.125195
 Thermal correction to Enthalpy=                  0.126139
 Thermal correction to Gibbs Free Energy=         0.080054
 Sum of electronic and zero-point Energies=          -2971.960757
 Sum of electronic and thermal Energies=             -2971.951609
 Sum of electronic and thermal Enthalpies=           -2971.950665
 Sum of electronic and thermal Free Energies=        -2971.996750

                     E (Thermal)             CV                S
                      KCal/Mol        Cal/Mol-Kelvin    Cal/Mol-Kelvin
 Total                   78.561             32.891             96.994
 Electronic               0.000              0.000              0.000
 Translational            0.889              2.981             41.769
 Rotational               0.889              2.981             30.868
 Vibrational             76.783             26.929             24.357
 Vibration     1          0.597              1.973              4.421
 Vibration     2          0.599              1.966              4.018
 Vibration     3          0.620              1.897              2.611
 Vibration     4          0.624              1.883              2.464
 Vibration     5          0.659              1.775              1.782
 Vibration     6          0.662              1.766              1.745
 Vibration     7          0.687              1.691              1.470
 Vibration     8          0.781              1.432              0.900
 Vibration     9          0.785              1.422              0.884
 Vibration    10          0.833              1.303              0.721
 Vibration    11          0.855              1.251              0.660
 Vibration    12          0.964              1.020              0.441
 Vibration    13          0.974              1.001              0.425

 Optimization completed.
    -- Stationary point found.
 Normal termination of Gaussian 16 at Tue Sep 17 09:51:15 2024.

 ----------------------------------------------------------------------
 #p M062X/def2tzvp geom=check guess=read scf(xqc,tight) integral(grid=u
 ltrafine) scrf(SMD, solvent=1,4-Dioxane) polar prop=efg volume
 ----------------------------------------------------------------------

 ---
 spe
 ---
 Structure from the checkpoint file:  "smiles_00104_conf_3.chk"
 Charge =  0 Multiplicity = 1

 SCF Done:  E(RM062X) =  -2974.51768977     A.U. after   12 cycles

  Exact polarizability:     189.981       3.189     120.893       0.000      -0.001      70.729
 Approx polarizability:     184.959       8.205     147.832       0.001      -0.001      88.401

 Normal termination of Gaussian 16 at Tue Sep 17 10:12:28 2024.
 Gaussian 16:  ES64L-G16RevC.02  7-Dec-2021

 ----------------------------------------------------------------------
 #p M062X/def2tzvp geom=check guess=read scf(xqc,tight) integral(grid=u
 ltrafine) scrf(SMD, solvent=1,4-Dioxane) nmr=giao
 ----------------------------------------------------------------------

 ---
 spe
 ---
 Structure from the checkpoint file:  "smiles_00104_conf_3.chk"
 Charge =  0 Multiplicity = 1

                         Standard orientation:
 ---------------------------------------------------------------------
 Center     Atomic      Atomic             Coordinates (Angstroms)
 Number     Number       Type             X           Y           Z
 ---------------------------------------------------------------------
      1          6           0       -4.078557    1.067084    0.000127
      2          6           0       -3.231260   -0.189960   -0.000020
      3          8           0       -3.742382   -1.298023   -0.000163
      4          6           0       -1.741866   -0.043482   -0.000003
      5          6           0       -1.080258    1.192019   -0.000053
      6          6           0        0.308375    1.224911   -0.000048
      7          6           0        0.975031   -0.002789    0.000019
      8         35           0        2.889056    0.004347   -0.000008
      9          7           0        0.385451   -1.185414    0.000092
     10          6           0       -0.951473   -1.200642    0.000095
     11          1           0       -3.867672    1.679969    0.883281
     12          1           0       -5.130026    0.781139   -0.000297
     13          1           0       -3.867257    1.680438   -0.882631
     14          1           0       -1.637471    2.122686   -0.000122
     15          1           0        0.861417    2.155353   -0.000115
     16          1           0       -1.435001   -2.172475    0.000136
 ---------------------------------------------------------------------

 SCF Done:  E(RM062X) =  -2974.51768977     A.U. after    1 cycles

      1  C    Isotropic =   155.5118   Anisotropy =    49.6770

      2  C    Isotropic =   -40.0754   Anisotropy =   207.9767

      3  O    Isotropic =  -415.6028   Anisotropy =  1163.1954

      4  C    Isotropic =    34.4071   Anisotropy =   199.7583

      5  C    Isotropic =    23.2960   Anisotropy =   229.5275

      6  C    Isotropic =    36.5130   Anisotropy =   175.7766

      7  C    Isotropic =    -4.1318   Anisotropy =   125.7212

      8  Br   Isotropic =  1900.2343   Anisotropy =  1483.7137

      9  N    Isotropic =  -139.1429   Anisotropy =   587.3013

     10  C    Isotropic =     9.3870   Anisotropy =   208.8022

     11  H    Isotropic =    29.0663   Anisotropy =     4.3121

     12  H    Isotropic =    29.4338   Anisotropy =     6.3700

     13  H    Isotropic =    29.0652   Anisotropy =     4.3102

     14  H    Isotropic =    22.8948   Anisotropy =     9.1815

     15  H    Isotropic =    23.5761   Anisotropy =    11.1447

     16  H    Isotropic =    21.7511   Anisotropy =     7.9942

 The electronic state is 1-A.
 Alpha  occ. eigenvalues -- -485.38154 -63.36651 -57.18591 -57.18363 -57.18346
 Alpha  occ. eigenvalues --  -19.62921 -14.77603 -10.65032 -10.64683 -10.60093
 Alpha  occ. eigenvalues --  -10.58665 -10.57598 -10.57417 -10.54576  -9.03305
 Alpha  occ. eigenvalues --   -6.85705  -6.84857  -6.84799  -2.89083  -2.88784
 Alpha  occ. eigenvalues --   -2.88725  -2.87936  -2.87935  -1.17636  -1.08793
 Alpha  occ. eigenvalues --   -0.93784  -0.91937  -0.86053  -0.83488  -0.74325
 Alpha  occ. eigenvalues --   -0.73202  -0.65551  -0.60257  -0.58189  -0.54830
 Alpha  occ. eigenvalues --   -0.53049  -0.52938  -0.51318  -0.50243  -0.49078
 Alpha  occ. eigenvalues --   -0.46426  -0.44268  -0.44236  -0.38856  -0.36850
 Alpha  occ. eigenvalues --   -0.36440  -0.35738  -0.33415  -0.31776
 Alpha virt. eigenvalues --   -0.04577  -0.01671   0.03268   0.05416   0.06885
 Alpha virt. eigenvalues --    0.10127   0.11424   0.12954   0.13842   0.14112
 Alpha virt. eigenvalues --    0.14268   0.16695   0.17019   0.18273   0.20298

 Mulliken charges:
               1
     1  C   -0.533756
     2  C    0.289189
     3  O   -0.328782
     4  C    0.010287
     5  C   -0.130357
     6  C   -0.215529
     7  C    0.166345
     8  Br  -0.090329
     9  N   -0.219957
    10  C   -0.054297
    11  H    0.182918
    12  H    0.172083
    13  H    0.182868
    14  H    0.195158
    15  H    0.186805
    16  H    0.187353
 Sum of Mulliken charges =   0.00000

 Dipole moment (field-independent basis, Debye):
    X=             -1.5089    Y=              4.9483    Z=              0.0002  Tot=              5.1732
 Quadrupole moment (field-independent basis, Debye-Ang):
   XX=            -75.0272   YY=            -69.1674   ZZ=            -71.3098
   XY=             -9.4972   XZ=             -0.0015   YZ=             -0.0007

 Normal termination of Gaussian 16 at Tue Sep 17 10:20:14 2024.
