 Gaussian 16, Revision C.02,

 ----------------------------------------------------------------------
 #p B3LYP/6-31G(d,p) EmpiricalDispersion=GD3BJ opt freq scf(xqc,tight)
 integral(grid=ultrafine)
 ----------------------------------------------------------------------

 ----------------------------------
 opt-freq conformers_unique/conf_aa
 ----------------------------------
 Symbolic Z-matrix:
 Charge =  0 Multiplicity = 1

 SCF Done:  E(RB3LYP) =  -900.903020775     A.U. after   15 cycles
 SCF Done:  E(RB3LYP) =  -900.905001768     A.U. after   12 cycles
 SCF Done:  E(RB3LYP) =  -900.905130471     A.U. after   10 cycles
 SCF Done:  E(RB3LYP) =  -900.905157403     A.U. after   10 cycles
 Optimization completed.
    -- Stationary point found.
 Normal termination of Gaussian 16 at Tue Sep 17 09:51:10 2024.

 ----------------------------------------------------------------------
 #P Geom=AllCheck Guess=TCheck SCRF=Check GenChk RB3LYP/6-31G(d,p) Freq
 ----------------------------------------------------------------------

 Structure from the checkpoint file:  "smiles_00079_conf_0.chk"
 ----------------------------------
 opt-freq conformers_unique/conf_aa
 ----------------------------------
 Charge =  0 Multiplicity = 1

 SCF Done:  E(RB3LYP) =  -900.905157403     A.U. after    1 cycles

                      1                      2                      3
                      A                      A                      A
 Frequencies --     97.6022               147.8787               168.4327
 Red. masses --      5.5280                 3.7233                 1.2661
 Frc consts  --      0.0310                 0.0480                 0.0212
 IR Inten    --      0.0343                 1.3360                 0.0134

                      4                      5                      6
                      A                      A                      A
 Frequencies --    207.1912               219.6720               277.0381
 Red. masses --      2.3538                 8.2626                 3.0276
 Frc consts  --      0.0595                 0.2349                 0.1369
 IR Inten    --      1.8649                 0.0773                 1.5092

                      7                      8                      9
                      A                      A                      A
 Frequencies --    301.6731               365.3799               434.4322
 Red. masses --      5.6465                13.0280                 3.2270
 Frc consts  --      0.3028                 1.0247                 0.3588
 IR Inten    --      0.0436                 8.7396                 3.1179

                     10                     11                     12
                      A                      A                      A
 Frequencies --    507.9596               518.4241               537.2403
 Red. masses --      5.0908                 5.2361                 3.4916
 Frc consts  --      0.7739                 0.8291                 0.5938
 IR Inten    --      1.2412                 6.2173                 0.6071

                     13                     14                     15
                      A                      A                      A
 Frequencies --    538.8227               573.4655               609.0268
 Red. masses --      5.3076                 3.6778                 7.9006
 Frc consts  --      0.9079                 0.7126                 1.7266
 IR Inten    --      0.8164                 0.0063                17.7471

                     16                     17                     18
                      A                      A                      A
 Frequencies --    672.4947               747.8651               779.0039
 Red. masses --      4.4647                 4.8586                 1.3198
 Frc consts  --      1.1897                 1.6010                 0.4719
 IR Inten    --      0.8404                 0.9469                45.4269

                     19                     20                     21
                      A                      A                      A
 Frequencies --    792.3384               868.5749               874.4554
 Red. masses --      3.5822                 6.3351                 1.3579
 Frc consts  --      1.3250                 2.8159                 0.6118
 IR Inten    --      0.2313                21.1882                14.8968

                     22                     23                     24
                      A                      A                      A
 Frequencies --    891.8533               915.0156               968.5142
 Red. masses --      1.5238                 7.6004                 1.3322
 Frc consts  --      0.7141                 3.7493                 0.7362
 IR Inten    --      1.9195                75.8278                 1.3340

                     25                     26                     27
                      A                      A                      A
 Frequencies --   1002.0014              1011.8221              1053.4286
 Red. masses --      1.2807                 1.8277                 2.4219
 Frc consts  --      0.7576                 1.1025                 1.5835
 IR Inten    --      0.1006                 1.7782                 1.4405

                     28                     29                     30
                      A                      A                      A
 Frequencies --   1065.8087              1091.8363              1132.0632
 Red. masses --      1.5619                 2.4671                 2.2167
 Frc consts  --      1.0454                 1.7328                 1.6737
 IR Inten    --      2.3673                 0.8261                51.3921

                     31                     32                     33
                      A                      A                      A
 Frequencies --   1177.2856              1192.0644              1268.5607
 Red. masses --      1.3621                 1.2334                 2.0164
 Frc consts  --      1.1123                 1.0326                 1.9119
 IR Inten    --     38.0543                 5.5218                 7.8851

                     34                     35                     36
                      A                      A                      A
 Frequencies --   1295.6640              1341.4548              1373.2980
 Red. masses --      1.9759                 5.0568                 3.1130
 Frc consts  --      1.9544                 5.3614                 3.4590
 IR Inten    --      9.7582                70.9012                 2.5460

                     37                     38                     39
                      A                      A                      A
 Frequencies --   1413.2289              1427.2747              1455.5490
 Red. masses --      4.5441                 1.3640                 2.4178
 Frc consts  --      5.3472                 1.6371                 3.0180
 IR Inten    --      2.2635                 0.6796                20.7017

                     40                     41                     42
                      A                      A                      A
 Frequencies --   1495.6726              1502.7017              1509.3585
 Red. masses --      1.0436                 1.8915                 1.4062
 Frc consts  --      1.3755                 2.5166                 1.8874
 IR Inten    --      7.7107                 1.8091                31.3248

                     43                     44                     45
                      A                      A                      A
 Frequencies --   1560.1576              1617.7029              1642.8964
 Red. masses --      3.6889                 8.7440                 6.4077
 Frc consts  --      5.2903                13.4821                10.1900
 IR Inten    --     24.8944                67.2806               113.8007

                     46                     47                     48
                      A                      A                      A
 Frequencies --   1673.8594              3046.1338              3103.3834
 Red. masses --      5.8585                 1.0377                 1.1005
 Frc consts  --      9.6710                 5.6730                 6.2446
 IR Inten    --      5.2295                14.1993                11.4934

                     49                     50                     51
                      A                      A                      A
 Frequencies --   3140.6112              3188.3929              3200.5729
 Red. masses --      1.1014                 1.0860                 1.0896
 Frc consts  --      6.4005                 6.5046                 6.5761
 IR Inten    --     13.9442                 1.6850                10.7261

                     52                     53                     54
                      A                      A                      A
 Frequencies --   3213.0745              3221.3582              3222.6549
 Red. masses --      1.0946                 1.0961                 1.0925
 Frc consts  --      6.6580                 6.7014                 6.6851
 IR Inten    --     19.3755                10.1204                 1.6755

 - Thermochemistry -
 -------------------
 Temperature   298.150 Kelvin.  Pressure   1.00000 Atm.
 Atom     1 has atomic number  6 and mass  12.00000

 Molecular mass:   177.03453 amu.
 Principal axes and moments of inertia in atomic units:
                           1         2         3
     Eigenvalues --  1209.489763010.544634208.84889
           X            0.99985   0.01731   0.00008
           Y           -0.01731   0.99985  -0.00002
           Z           -0.00008   0.00002   1.00000
 This molecule is an asymmetric top.
 Rotational symmetry number  1.
 Warning -- assumption of classical behavior for rotation
           may cause significant error
 Rotational temperatures (Kelvin)      0.07161     0.02877     0.02058
 Rotational constants (GHZ):           1.49215     0.59947     0.42880
 Zero-point vibrational energy     404662.1 (Joules/Mol)
                                   96.71657 (Kcal/Mol)
 Warning -- explicit consideration of  15 degrees of freedom as
           vibrations may cause significant error
 Vibrational temperatures:    140.43   212.76   242.34   298.10   316.06
          (Kelvin)            398.60   434.04   525.70   625.05   730.84
                              745.90   772.97   775.25   825.09   876.25
                              967.57  1076.01  1120.81  1140.00  1249.69
                             1258.15  1283.18  1316.50  1393.48  1441.66
                             1455.79  1515.65  1533.46  1570.91  1628.79
                             1693.85  1715.11  1825.18  1864.17  1930.05
                             1975.87  2033.32  2053.53  2094.21  2151.94
                             2162.05  2171.63  2244.72  2327.51  2363.76
                             2408.31  4382.71  4465.08  4518.64  4587.39
                             4604.91  4622.90  4634.82  4636.68

 Zero-point correction=                           0.154128 (Hartree/Particle)
 Thermal correction to Energy=                    0.163637
 Thermal correction to Enthalpy=                  0.164581
 Thermal correction to Gibbs Free Energy=         0.119010
 Sum of electronic and zero-point Energies=           -900.751030
 Sum of electronic and thermal Energies=              -900.741521
 Sum of electronic and thermal Enthalpies=            -900.740576
 Sum of electronic and thermal Free Energies=         -900.786148

                     E (Thermal)             CV                S
                      KCal/Mol        Cal/Mol-Kelvin    Cal/Mol-Kelvin
 Total                  102.684             37.603             95.913
 Electronic               0.000              0.000              0.000
 Translational            0.889              2.981             41.421
 Rotational               0.889              2.981             31.106
 Vibrational            100.906             31.641             23.387
 Vibration     1          0.603              1.951              3.502
 Vibration     2          0.617              1.905              2.699
 Vibration     3          0.625              1.881              2.453
 Vibration     4          0.641              1.830              2.068
 Vibration     5          0.647              1.811              1.962
 Vibration     6          0.678              1.716              1.552
 Vibration     7          0.694              1.671              1.408
 Vibration     8          0.739              1.544              1.099
 Vibration     9          0.795              1.395              0.844
 Vibration    10          0.863              1.232              0.639
 Vibration    11          0.873              1.209              0.614
 Vibration    12          0.892              1.168              0.571
 Vibration    13          0.894              1.164              0.568
 Vibration    14          0.930              1.089              0.498
 Vibration    15          0.968              1.013              0.434

 Optimization completed.
    -- Stationary point found.
 Normal termination of Gaussian 16 at Tue Sep 17 09:52:23 2024.

 ----------------------------------------------------------------------
 #p M062X/def2tzvp geom=check guess=read scf(xqc,tight) integral(grid=u
 ltrafine) scrf(SMD, solvent=1,4-Dioxane) polar prop=efg volume
 ----------------------------------------------------------------------

 ---
 spe
 ---
 Structure from the checkpoint file:  "smiles_00079_conf_0.chk"
 Charge =  0 Multiplicity = 1

 SCF Done:  E(RM062X) =  -900.829929351     A.U. after   12 cycles

  Exact polarizability:     233.532       8.665     170.743      -0.012       0.003      81.724
 Approx polarizability:     246.608       7.024     191.264      -0.011       0.003     103.033

 Normal termination of Gaussian 16 at Tue Sep 17 10:31:18 2024.
 Gaussian 16:  ES64L-G16RevC.02  7-Dec-2021

 ----------------------------------------------------------------------
 #p M062X/def2tzvp geom=check guess=read scf(xqc,tight) integral(grid=u
 ltrafine) scrf(SMD, solvent=1,4-Dioxane) nmr=giao
 ----------------------------------------------------------------------

 ---
 spe
 ---
 Structure from the checkpoint file:  "smiles_00079_conf_0.chk"
 Charge =  0 Multiplicity = 1

                         Standard orientation:
 ---------------------------------------------------------------------
 Center     Atomic      Atomic             Coordinates (Angstroms)
 Number     Number       Type             X           Y           Z
 ---------------------------------------------------------------------
      1          6           0       -0.334615    2.976912    0.000074
      2          6           0        0.041754    1.520675    0.000011
      3          6           0        1.362243    1.133623   -0.000062
      4          6           0        1.665300   -0.249971   -0.000012
      5         17           0        3.374391   -0.698578   -0.000325
      6          7           0        0.798731   -1.216007   -0.000040
      7          6           0       -0.524141   -0.864275    0.000009
      8          6           0       -1.486247   -1.903478    0.000052
      9          6           0       -2.830987   -1.607894    0.000174
     10          6           0       -3.266367   -0.263317    0.000260
     11          6           0       -2.350672    0.766566    0.000214
     12          6           0       -0.959200    0.497463    0.000079
     13          1           0        0.554228    3.610928   -0.000601
     14          1           0       -0.933264    3.229686    0.881930
     15          1           0       -0.934470    3.229495   -0.881005
     16          1           0        2.164313    1.861714   -0.000174
     17          1           0       -1.121410   -2.924539   -0.000003
     18          1           0       -3.563220   -2.409221    0.000204
     19          1           0       -4.329110   -0.042779    0.000363
     20          1           0       -2.695240    1.794780    0.000296
 ---------------------------------------------------------------------

 SCF Done:  E(RM062X) =  -900.829929351     A.U. after    1 cycles

      1  C    Isotropic =   165.1238   Anisotropy =    30.5733

      2  C    Isotropic =     9.9362   Anisotropy =   238.9763

      3  C    Isotropic =    42.2496   Anisotropy =   141.5614

      4  C    Isotropic =     6.2534   Anisotropy =   113.9312

      5  Cl   Isotropic =   590.0803   Anisotropy =   649.3192

      6  N    Isotropic =  -110.3038   Anisotropy =   506.1395

      7  C    Isotropic =    14.1264   Anisotropy =   214.2237

      8  C    Isotropic =    31.9805   Anisotropy =   191.0797

      9  C    Isotropic =    31.9717   Anisotropy =   217.2504

     10  C    Isotropic =    37.7649   Anisotropy =   216.0291

     11  C    Isotropic =    40.0400   Anisotropy =   206.4649

     12  C    Isotropic =    36.3655   Anisotropy =   232.5698

     13  H    Isotropic =    29.2444   Anisotropy =     7.8287

     14  H    Isotropic =    28.9048   Anisotropy =     8.3210

     15  H    Isotropic =    28.9042   Anisotropy =     8.3192

     16  H    Isotropic =    23.7782   Anisotropy =    11.4196

     17  H    Isotropic =    22.8204   Anisotropy =     8.2495

     18  H    Isotropic =    23.1354   Anisotropy =     6.7784

     19  H    Isotropic =    23.3901   Anisotropy =     6.8636

     20  H    Isotropic =    22.8766   Anisotropy =    10.9904

 The electronic state is 1-A.
 Alpha  occ. eigenvalues -- -102.64430 -14.76049 -10.64266 -10.59070 -10.58126
 Alpha  occ. eigenvalues --  -10.56420 -10.55955 -10.55440 -10.55267 -10.55167
 Alpha  occ. eigenvalues --  -10.54798 -10.54407  -9.80707  -7.52890  -7.52403
 Alpha  occ. eigenvalues --   -7.52372  -1.08024  -0.97260  -0.94251  -0.92684
 Alpha  occ. eigenvalues --   -0.84656  -0.84081  -0.81248  -0.72500  -0.71149
 Alpha  occ. eigenvalues --   -0.66967  -0.61350  -0.60056  -0.56981  -0.53833
 Alpha  occ. eigenvalues --   -0.51894  -0.51037  -0.49798  -0.49200  -0.48430
 Alpha  occ. eigenvalues --   -0.46555  -0.45684  -0.44036  -0.42401  -0.41359
 Alpha  occ. eigenvalues --   -0.38304  -0.38156  -0.36367  -0.34371  -0.30464
 Alpha  occ. eigenvalues --   -0.29049
 Alpha virt. eigenvalues --   -0.03533  -0.00148   0.04210   0.07053   0.07339
 Alpha virt. eigenvalues --    0.09427   0.11044   0.11194   0.11624   0.12658
 Alpha virt. eigenvalues --    0.14217   0.14991   0.15702   0.16482   0.17027

 Mulliken charges:
               1
     1  C   -0.546928
     2  C    0.076855
     3  C   -0.219121
     4  C    0.135031
     5  Cl  -0.096416
     6  N   -0.224563
     7  C    0.191044
     8  C   -0.232450
     9  C   -0.136574
    10  C   -0.166340
    11  C   -0.234570
    12  C    0.066870
    13  H    0.158485
    14  H    0.184606
    15  H    0.184550
    16  H    0.172046
    17  H    0.170960
    18  H    0.165664
    19  H    0.165825
    20  H    0.185025
 Sum of Mulliken charges =  -0.00000

 Dipole moment (field-independent basis, Debye):
    X=             -3.3298    Y=              3.3675    Z=              0.0004  Tot=              4.7357
 Quadrupole moment (field-independent basis, Debye-Ang):
   XX=            -72.8477   YY=            -68.6865   ZZ=            -80.2820
   XY=              4.8609   XZ=             -0.0007   YZ=              0.0002

 Normal termination of Gaussian 16 at Tue Sep 17 10:47:06 2024.
