 Gaussian 16, Revision C.02,

 ----------------------------------------------------------------------
 #p B3LYP/6-31G(d,p) EmpiricalDispersion=GD3BJ opt freq scf(xqc,tight)
 integral(grid=ultrafine)
 ----------------------------------------------------------------------

 ----------------------------------
 opt-freq conformers_unique/conf_aa
 ----------------------------------
 Symbolic Z-matrix:
 Charge =  0 Multiplicity = 1

 SCF Done:  E(RB3LYP) =  -899.909817222     A.U. after   15 cycles
 SCF Done:  E(RB3LYP) =  -899.911444579     A.U. after   12 cycles
 SCF Done:  E(RB3LYP) =  -899.911507940     A.U. after   11 cycles
 SCF Done:  E(RB3LYP) =  -899.911528376     A.U. after   11 cycles
 SCF Done:  E(RB3LYP) =  -899.911530227     A.U. after    8 cycles
 SCF Done:  E(RB3LYP) =  -899.911530192     A.U. after    7 cycles
 Optimization completed.
    -- Stationary point found.
 Normal termination of Gaussian 16 at Tue Sep 17 09:55:17 2024.

 ----------------------------------------------------------------------
 #P Geom=AllCheck Guess=TCheck SCRF=Check GenChk RB3LYP/6-31G(d,p) Freq
 ----------------------------------------------------------------------

 Structure from the checkpoint file:  "smiles_00003_conf_0.chk"
 ----------------------------------
 opt-freq conformers_unique/conf_aa
 ----------------------------------
 Charge =  0 Multiplicity = 1

 SCF Done:  E(RB3LYP) =  -899.911530192     A.U. after    1 cycles
 ******    1 imaginary frequencies (negative Signs) ******

                      1                      2                      3
                      A                      A                      A
 Frequencies --    -56.8416                51.6359                68.6805
 Red. masses --      1.0823                 5.6371                 4.0334
 Frc consts  --      0.0021                 0.0089                 0.0112
 IR Inten    --      0.1936                 1.8999                 4.6123

                      4                      5                      6
                      A                      A                      A
 Frequencies --    143.0092               152.8967               271.9643
 Red. masses --      6.1200                 5.7445                 8.3001
 Frc consts  --      0.0737                 0.0791                 0.3617
 IR Inten    --      4.2106                 0.3556                 2.3108

                      7                      8                      9
                      A                      A                      A
 Frequencies --    291.9992               339.9687               379.8193
 Red. masses --      5.2118                 5.8057                 4.7064
 Frc consts  --      0.2618                 0.3954                 0.4000
 IR Inten    --      1.1037                 0.0016                 0.0016

                     10                     11                     12
                      A                      A                      A
 Frequencies --    421.1505               449.1472               515.3711
 Red. masses --      3.1831                 5.5584                 2.4541
 Frc consts  --      0.3326                 0.6607                 0.3840
 IR Inten    --      0.0457                25.7175                29.7080

                     13                     14                     15
                      A                      A                      A
 Frequencies --    534.7971               594.1428               609.7515
 Red. masses --      1.4884                 4.6734                 1.9217
 Frc consts  --      0.2508                 0.9720                 0.4210
 IR Inten    --     46.7562                 0.7945                 7.6473

                     16                     17                     18
                      A                      A                      A
 Frequencies --    648.5450               710.9322               716.8742
 Red. masses --      6.9208                 3.8928                 6.0540
 Frc consts  --      1.7151                 1.1592                 1.8331
 IR Inten    --      0.2372                 0.5913                22.4967

                     19                     20                     21
                      A                      A                      A
 Frequencies --    819.2674               849.6435               853.8705
 Red. masses --      1.3909                 4.4525                 1.4080
 Frc consts  --      0.5500                 1.8938                 0.6049
 IR Inten    --     21.5243                 5.7769                32.0235

                     22                     23                     24
                      A                      A                      A
 Frequencies --    939.4830               968.0365               984.1982
 Red. masses --      1.2992                 6.3020                 1.2908
 Frc consts  --      0.6756                 3.4795                 0.7367
 IR Inten    --      0.0003                 7.4746                 0.9785

                     25                     26                     27
                      A                      A                      A
 Frequencies --   1009.0432              1030.6438              1050.7972
 Red. masses --      1.6796                 3.4108                 1.7153
 Frc consts  --      1.0076                 2.1346                 1.1159
 IR Inten    --     20.8948                24.3937                 4.4446

                     28                     29                     30
                      A                      A                      A
 Frequencies --   1115.3086              1144.2350              1206.6112
 Red. masses --      2.7606                 1.3085                 1.1350
 Frc consts  --      2.0232                 1.0094                 0.9736
 IR Inten    --     49.6879                14.6774                11.1479

                     31                     32                     33
                      A                      A                      A
 Frequencies --   1255.1305              1282.2472              1327.7104
 Red. masses --      3.0816                 2.3147                 1.3656
 Frc consts  --      2.8603                 2.2423                 1.4184
 IR Inten    --     56.2377                59.9906                 5.9846

                     34                     35                     36
                      A                      A                      A
 Frequencies --   1352.3541              1400.6479              1440.2031
 Red. masses --      6.0013                 1.3168                 2.9594
 Frc consts  --      6.4666                 1.5221                 3.6166
 IR Inten    --     97.3604                26.3757                81.3973

                     37                     38                     39
                      A                      A                      A
 Frequencies --   1484.4171              1497.9704              1536.8884
 Red. masses --      1.0768                 1.0454                 2.3036
 Frc consts  --      1.3980                 1.3821                 3.2059
 IR Inten    --     16.8393                 8.6829                89.4300

                     40                     41                     42
                      A                      A                      A
 Frequencies --   1561.6598              1643.2107              1658.6181
 Red. masses --      2.2658                 4.7653                 5.8752
 Frc consts  --      3.2558                 7.5810                 9.5229
 IR Inten    --    455.4194                39.0707                20.6099

                     43                     44                     45
                      A                      A                      A
 Frequencies --   1798.1368              3051.6966              3115.4267
 Red. masses --      8.7020                 1.0390                 1.1013
 Frc consts  --     16.5773                 5.7010                 6.2978
 IR Inten    --    199.9162                 5.2774                10.9108

                     46                     47                     48
                      A                      A                      A
 Frequencies --   3173.3322              3182.0906              3218.3529
 Red. masses --      1.0896                 1.1003                 1.0915
 Frc consts  --      6.4650                 6.5645                 6.6613
 IR Inten    --     15.0371                 4.4027                 2.2634

                     49                     50                     51
                      A                      A                      A
 Frequencies --   3222.2206              3271.2506              3627.3923
 Red. masses --      1.0936                 1.0924                 1.0768
 Frc consts  --      6.6896                 6.8877                 8.3482
 IR Inten    --      2.6824                 8.1964                17.8748

 - Thermochemistry -
 -------------------
 Temperature   298.150 Kelvin.  Pressure   1.00000 Atm.
 Atom     1 has atomic number  6 and mass  12.00000

 Molecular mass:   169.02944 amu.
 Principal axes and moments of inertia in atomic units:
                           1         2         3
     Eigenvalues --   509.377274509.288565007.37041
           X            0.99997  -0.00739   0.00013
           Y            0.00739   0.99997   0.00010
           Z           -0.00013  -0.00010   1.00000
 This molecule is an asymmetric top.
 Rotational symmetry number  1.
 Warning -- assumption of classical behavior for rotation
           may cause significant error
 Rotational temperatures (Kelvin)      0.17004     0.01921     0.01730
 Rotational constants (GHZ):           3.54303     0.40023     0.36042
    1 imaginary frequencies ignored.
 Zero-point vibrational energy     382642.2 (Joules/Mol)
                                   91.45368 (Kcal/Mol)
 Warning -- explicit consideration of  14 degrees of freedom as
           vibrations may cause significant error
 Vibrational temperatures:     74.29    98.82   205.76   219.98   391.30
          (Kelvin)            420.12   489.14   546.48   605.94   646.22
                              741.50   769.45   854.84   877.30   933.11
                             1022.87  1031.42  1178.74  1222.45  1228.53
                             1351.71  1392.79  1416.04  1451.79  1482.87
                             1511.86  1604.68  1646.30  1736.04  1805.85
                             1844.87  1910.28  1945.74  2015.22  2072.13
                             2135.75  2155.25  2211.24  2246.88  2364.21
                             2386.38  2587.12  4390.71  4482.40  4565.72
                             4578.32  4630.49  4636.06  4706.60  5219.01

 Zero-point correction=                           0.145741 (Hartree/Particle)
 Thermal correction to Energy=                    0.155290
 Thermal correction to Enthalpy=                  0.156234
 Thermal correction to Gibbs Free Energy=         0.109703
 Sum of electronic and zero-point Energies=           -899.765789
 Sum of electronic and thermal Energies=              -899.756241
 Sum of electronic and thermal Enthalpies=            -899.755296
 Sum of electronic and thermal Free Energies=         -899.801827

                     E (Thermal)             CV                S
                      KCal/Mol        Cal/Mol-Kelvin    Cal/Mol-Kelvin
 Total                   97.446             35.951             97.932
 Electronic               0.000              0.000              0.000
 Translational            0.889              2.981             41.283
 Rotational               0.889              2.981             30.820
 Vibrational             95.668             29.990             25.829
 Vibration     1          0.596              1.977              4.754
 Vibration     2          0.598              1.969              4.191
 Vibration     3          0.616              1.910              2.763
 Vibration     4          0.619              1.899              2.636
 Vibration     5          0.675              1.725              1.584
 Vibration     6          0.687              1.689              1.462
 Vibration     7          0.720              1.596              1.212
 Vibration     8          0.750              1.513              1.040
 Vibration     9          0.784              1.424              0.888
 Vibration    10          0.808              1.363              0.798
 Vibration    11          0.870              1.216              0.621
 Vibration    12          0.890              1.173              0.577
 Vibration    13          0.952              1.044              0.460
 Vibration    14          0.969              1.011              0.433

                           ! Non-Optimized Parameters !
 Normal termination of Gaussian 16 at Tue Sep 17 09:56:08 2024.

 ----------------------------------------------------------------------
 #p M062X/def2tzvp geom=check guess=read scf(xqc,tight) integral(grid=u
 ltrafine) scrf(SMD, solvent=1,4-Dioxane) polar prop=efg volume
 ----------------------------------------------------------------------

 ---
 spe
 ---
 Structure from the checkpoint file:  "smiles_00003_conf_0.chk"
 Charge =  0 Multiplicity = 1

 SCF Done:  E(RM062X) =  -899.858130602     A.U. after   12 cycles

  Exact polarizability:     200.717      -1.158     131.802      -0.026      -0.008      74.203
 Approx polarizability:     188.242       0.361     159.184      -0.024      -0.006      91.378

 Normal termination of Gaussian 16 at Tue Sep 17 10:21:34 2024.
 Gaussian 16:  ES64L-G16RevC.02  7-Dec-2021

 ----------------------------------------------------------------------
 #p M062X/def2tzvp geom=check guess=read scf(xqc,tight) integral(grid=u
 ltrafine) scrf(SMD, solvent=1,4-Dioxane) nmr=giao
 ----------------------------------------------------------------------

 ---
 spe
 ---
 Structure from the checkpoint file:  "smiles_00003_conf_0.chk"
 Charge =  0 Multiplicity = 1

                         Standard orientation:
 ---------------------------------------------------------------------
 Center     Atomic      Atomic             Coordinates (Angstroms)
 Number     Number       Type             X           Y           Z
 ---------------------------------------------------------------------
      1          6           0       -4.397138    0.410040    0.000279
      2          6           0       -3.032799   -0.262344    0.000792
      3          8           0       -2.896241   -1.476003   -0.000204
      4          7           0       -1.981195    0.631108    0.000664
      5          6           0       -0.599005    0.367137    0.000323
      6          6           0        0.269792    1.468337   -0.000302
      7          6           0        1.648472    1.290060   -0.000595
      8          6           0        2.166276   -0.003023   -0.000286
      9         17           0        3.908406   -0.239819   -0.000670
     10          6           0        1.317648   -1.106712    0.000317
     11          6           0       -0.064020   -0.929640    0.000635
     12          1           0       -5.161926   -0.365070   -0.003283
     13          1           0       -4.525788    1.038747    0.887828
     14          1           0       -4.522952    1.044288   -0.883723
     15          1           0       -2.229335    1.609932    0.000557
     16          1           0       -0.135665    2.476992   -0.000559
     17          1           0        2.313984    2.145257   -0.001071
     18          1           0        1.733261   -2.107764    0.000554
     19          1           0       -0.731546   -1.778331    0.001093
 ---------------------------------------------------------------------

 SCF Done:  E(RM062X) =  -899.858130602     A.U. after    1 cycles

      1  C    Isotropic =   159.1732   Anisotropy =    55.4537

      2  C    Isotropic =    -3.3467   Anisotropy =   136.4037

      3  O    Isotropic =  -177.8084   Anisotropy =   745.6735

      4  N    Isotropic =    95.9703   Anisotropy =   134.7190

      5  C    Isotropic =    25.2469   Anisotropy =   184.8067

      6  C    Isotropic =    48.9165   Anisotropy =   165.6892

      7  C    Isotropic =    35.2724   Anisotropy =   186.0078

      8  C    Isotropic =    30.0774   Anisotropy =   133.9416

      9  Cl   Isotropic =   693.0605   Anisotropy =   510.2531

     10  C    Isotropic =    33.1273   Anisotropy =   188.1244

     11  C    Isotropic =    46.5557   Anisotropy =   199.2094

     12  H    Isotropic =    29.9441   Anisotropy =     7.2273

     13  H    Isotropic =    29.6275   Anisotropy =     5.7998

     14  H    Isotropic =    29.6297   Anisotropy =     5.7957

     15  H    Isotropic =    24.4542   Anisotropy =     8.7217

     16  H    Isotropic =    24.5054   Anisotropy =     7.4258

     17  H    Isotropic =    23.8478   Anisotropy =     8.3990

     18  H    Isotropic =    23.7057   Anisotropy =     8.7717

     19  H    Isotropic =    22.1780   Anisotropy =    10.8713

 The electronic state is 1-A.
 Alpha  occ. eigenvalues -- -102.64381 -19.60574 -14.79267 -10.65860 -10.60272
 Alpha  occ. eigenvalues --  -10.60094 -10.55839 -10.55663 -10.55521 -10.54742
 Alpha  occ. eigenvalues --  -10.54446  -9.80624  -7.52821  -7.52312  -7.52304
 Alpha  occ. eigenvalues --   -1.17161  -1.05927  -0.98989  -0.93188  -0.85800
 Alpha  occ. eigenvalues --   -0.85613  -0.80906  -0.72450  -0.70077  -0.65847
 Alpha  occ. eigenvalues --   -0.62197  -0.57119  -0.55705  -0.53710  -0.52942
 Alpha  occ. eigenvalues --   -0.51827  -0.49894  -0.48967  -0.48043  -0.46978
 Alpha  occ. eigenvalues --   -0.45075  -0.44120  -0.42429  -0.41445  -0.37720
 Alpha  occ. eigenvalues --   -0.36557  -0.33970  -0.32193  -0.27558
 Alpha virt. eigenvalues --    0.00619   0.00861   0.05412   0.06905   0.06956
 Alpha virt. eigenvalues --    0.09810   0.11468   0.12521   0.13436   0.13895
 Alpha virt. eigenvalues --    0.14972   0.15080   0.16141   0.18068   0.18531

 Mulliken charges:
               1
     1  C   -0.518932
     2  C    0.394719
     3  O   -0.408915
     4  N   -0.359708
     5  C    0.252972
     6  C   -0.238556
     7  C   -0.182798
     8  C    0.057954
     9  Cl  -0.106894
    10  C   -0.173232
    11  C   -0.229674
    12  H    0.169813
    13  H    0.173859
    14  H    0.173671
    15  H    0.267519
    16  H    0.170151
    17  H    0.173793
    18  H    0.174897
    19  H    0.209362
 Sum of Mulliken charges =  -0.00000

 Dipole moment (field-independent basis, Debye):
    X=             -2.8690    Y=              4.3973    Z=              0.0020  Tot=              5.2505
 Quadrupole moment (field-independent basis, Debye-Ang):
   XX=            -70.1186   YY=            -66.5813   ZZ=            -74.3405
   XY=            -11.1795   XZ=             -0.0059   YZ=             -0.0044

 Normal termination of Gaussian 16 at Tue Sep 17 10:30:51 2024.
