 Gaussian 16, Revision C.02,

 ----------------------------------------------------------------------
 #p B3LYP/6-31G(d,p) EmpiricalDispersion=GD3BJ opt freq scf(xqc,tight)
 integral(grid=ultrafine)
 ----------------------------------------------------------------------

 ----------------------------------
 opt-freq conformers_unique/conf_ad
 ----------------------------------
 Symbolic Z-matrix:
 Charge =  0 Multiplicity = 1

 SCF Done:  E(RB3LYP) =  -899.903644689     A.U. after   14 cycles
 SCF Done:  E(RB3LYP) =  -899.905220997     A.U. after   12 cycles
 SCF Done:  E(RB3LYP) =  -899.905231943     A.U. after   11 cycles
 SCF Done:  E(RB3LYP) =  -899.905378989     A.U. after   10 cycles
 SCF Done:  E(RB3LYP) =  -899.905373332     A.U. after   10 cycles
 SCF Done:  E(RB3LYP) =  -899.905388317     A.U. after    9 cycles
 SCF Done:  E(RB3LYP) =  -899.905396426     A.U. after   10 cycles
 SCF Done:  E(RB3LYP) =  -899.905520610     A.U. after   12 cycles
 SCF Done:  E(RB3LYP) =  -899.904510453     A.U. after   12 cycles
 SCF Done:  E(RB3LYP) =  -899.905986135     A.U. after   13 cycles
 SCF Done:  E(RB3LYP) =  -899.906804536     A.U. after   11 cycles
 SCF Done:  E(RB3LYP) =  -899.906812731     A.U. after   10 cycles
 SCF Done:  E(RB3LYP) =  -899.906825201     A.U. after   10 cycles
 SCF Done:  E(RB3LYP) =  -899.906831412     A.U. after    9 cycles
 SCF Done:  E(RB3LYP) =  -899.906834052     A.U. after    9 cycles
 SCF Done:  E(RB3LYP) =  -899.906834660     A.U. after    8 cycles
 SCF Done:  E(RB3LYP) =  -899.906834797     A.U. after    7 cycles
 Optimization completed.
    -- Stationary point found.
 Normal termination of Gaussian 16 at Tue Sep 17 09:59:48 2024.

 ----------------------------------------------------------------------
 #P Geom=AllCheck Guess=TCheck SCRF=Check GenChk RB3LYP/6-31G(d,p) Freq
 ----------------------------------------------------------------------

 Structure from the checkpoint file:  "smiles_00003_conf_3.chk"
 ----------------------------------
 opt-freq conformers_unique/conf_ad
 ----------------------------------
 Charge =  0 Multiplicity = 1

 SCF Done:  E(RB3LYP) =  -899.906834797     A.U. after    1 cycles

                      1                      2                      3
                      A                      A                      A
 Frequencies --     47.2433                58.3587               101.4920
 Red. masses --      4.0397                 7.6333                 6.5971
 Frc consts  --      0.0053                 0.0153                 0.0400
 IR Inten    --      2.1076                 3.1904                 1.8026

                      4                      5                      6
                      A                      A                      A
 Frequencies --    172.9574               196.1809               269.3629
 Red. masses --      3.5303                 1.1771                 6.6387
 Frc consts  --      0.0622                 0.0267                 0.2838
 IR Inten    --      0.7864                 0.1339                 0.3860

                      7                      8                      9
                      A                      A                      A
 Frequencies --    317.6615               340.3424               387.2061
 Red. masses --     10.9710                 4.7171                 4.4523
 Frc consts  --      0.6523                 0.3219                 0.3933
 IR Inten    --      1.0507                 3.3757                 1.6183

                     10                     11                     12
                      A                      A                      A
 Frequencies --    424.7235               495.1785               499.3770
 Red. masses --      3.1682                 4.2021                 2.9776
 Frc consts  --      0.3367                 0.6071                 0.4375
 IR Inten    --      0.4643                47.1277                 4.7503

                     13                     14                     15
                      A                      A                      A
 Frequencies --    532.3413               549.0567               647.6251
 Red. masses --      1.8654                 3.2036                 3.5630
 Frc consts  --      0.3115                 0.5690                 0.8805
 IR Inten    --     12.4742                15.7481                21.6335

                     16                     17                     18
                      A                      A                      A
 Frequencies --    652.2039               699.5664               729.9052
 Red. masses --      2.1507                 4.9821                 4.5989
 Frc consts  --      0.5390                 1.4366                 1.4436
 IR Inten    --     64.4127                 2.2993                12.3319

                     19                     20                     21
                      A                      A                      A
 Frequencies --    803.9337               828.8543               844.5839
 Red. masses --      3.6764                 1.2548                 1.7190
 Frc consts  --      1.4000                 0.5079                 0.7225
 IR Inten    --     12.3720                 0.2529                37.6056

                     22                     23                     24
                      A                      A                      A
 Frequencies --    929.3439               953.4299               960.0282
 Red. masses --      3.7983                 1.2996                 1.3271
 Frc consts  --      1.9328                 0.6961                 0.7207
 IR Inten    --      5.9567                 0.0935                 0.1688

                     25                     26                     27
                      A                      A                      A
 Frequencies --   1030.1693              1031.6401              1057.6718
 Red. masses --      1.7865                 2.7056                 1.7356
 Frc consts  --      1.1171                 1.6966                 1.1440
 IR Inten    --     42.9931                 2.0605                 9.6625

                     28                     29                     30
                      A                      A                      A
 Frequencies --   1116.9405              1140.1283              1207.1337
 Red. masses --      2.9755                 1.3078                 1.1277
 Frc consts  --      2.1871                 1.0016                 0.9682
 IR Inten    --     59.2018                 5.1409                 6.7340

                     31                     32                     33
                      A                      A                      A
 Frequencies --   1258.8798              1327.1624              1337.4482
 Red. masses --      2.4894                 1.6011                 2.4582
 Frc consts  --      2.3244                 1.6615                 2.5907
 IR Inten    --     19.3378                26.4779               145.3931

                     34                     35                     36
                      A                      A                      A
 Frequencies --   1348.2407              1412.6247              1431.8228
 Red. masses --      4.1489                 1.4302                 2.5205
 Frc consts  --      4.4435                 1.6816                 3.0444
 IR Inten    --    161.6048               103.4020                 8.0107

                     37                     38                     39
                      A                      A                      A
 Frequencies --   1485.4940              1492.7300              1502.5079
 Red. masses --      1.0930                 1.7600                 1.1637
 Frc consts  --      1.4210                 2.3106                 1.5478
 IR Inten    --     23.9646                 7.5739                16.0642

                     40                     41                     42
                      A                      A                      A
 Frequencies --   1542.9973              1632.9086              1658.1781
 Red. masses --      2.6300                 6.5638                 5.9685
 Frc consts  --      3.6892                10.3117                 9.6689
 IR Inten    --    209.4468                 2.4346                16.0928

                     43                     44                     45
                      A                      A                      A
 Frequencies --   1795.7308              3064.4040              3136.4380
 Red. masses --      8.2264                 1.0388                 1.0975
 Frc consts  --     15.6294                 5.7473                 6.3613
 IR Inten    --    472.0695                 2.7541                 7.2370

                     46                     47                     48
                      A                      A                      A
 Frequencies --   3174.0490              3193.3419              3217.3630
 Red. masses --      1.1042                 1.0898                 1.0893
 Frc consts  --      6.5541                 6.5475                 6.6437
 IR Inten    --      8.6195                 7.4603                 2.3338

                     49                     50                     51
                      A                      A                      A
 Frequencies --   3223.4467              3234.7602              3601.5189
 Red. masses --      1.0941                 1.0941                 1.0756
 Frc consts  --      6.6982                 6.7453                 8.2197
 IR Inten    --      2.5742                 3.9659                29.4276

 - Thermochemistry -
 -------------------
 Temperature   298.150 Kelvin.  Pressure   1.00000 Atm.
 Atom     1 has atomic number  6 and mass  12.00000

 Molecular mass:   169.02944 amu.
 Principal axes and moments of inertia in atomic units:
                           1         2         3
     Eigenvalues --   548.927634459.856374860.52717
           X            0.99990   0.01317   0.00459
           Y           -0.01316   0.99991  -0.00119
           Z           -0.00460   0.00113   0.99999
 This molecule is an asymmetric top.
 Rotational symmetry number  1.
 Warning -- assumption of classical behavior for rotation
           may cause significant error
 Rotational temperatures (Kelvin)      0.15779     0.01942     0.01782
 Rotational constants (GHZ):           3.28776     0.40466     0.37131
 Zero-point vibrational energy     383383.3 (Joules/Mol)
                                   91.63081 (Kcal/Mol)
 Warning -- explicit consideration of  14 degrees of freedom as
           vibrations may cause significant error
 Vibrational temperatures:     67.97    83.97   146.02   248.85   282.26
          (Kelvin)            387.55   457.04   489.68   557.10   611.08
                              712.45   718.49   765.92   789.97   931.79
                              938.38  1006.52  1050.17  1156.68  1192.54
                             1215.17  1337.12  1371.77  1381.27  1482.18
                             1484.30  1521.75  1607.03  1640.39  1736.80
                             1811.25  1909.49  1924.29  1939.82  2032.45
                             2060.07  2137.29  2147.71  2161.77  2220.03
                             2349.39  2385.75  2583.66  4408.99  4512.63
                             4566.75  4594.51  4629.07  4637.82  4654.10
                             5181.78

 Zero-point correction=                           0.146023 (Hartree/Particle)
 Thermal correction to Energy=                    0.156169
 Thermal correction to Enthalpy=                  0.157113
 Thermal correction to Gibbs Free Energy=         0.109185
 Sum of electronic and zero-point Energies=           -899.760812
 Sum of electronic and thermal Energies=              -899.750666
 Sum of electronic and thermal Enthalpies=            -899.749722
 Sum of electronic and thermal Free Energies=         -899.797650

                     E (Thermal)             CV                S
                      KCal/Mol        Cal/Mol-Kelvin    Cal/Mol-Kelvin
 Total                   97.997             37.786            100.873
 Electronic               0.000              0.000              0.000
 Translational            0.889              2.981             41.283
 Rotational               0.889              2.981             30.854
 Vibrational             96.220             31.824             28.736
 Vibration     1          0.595              1.979              4.930
 Vibration     2          0.596              1.974              4.512
 Vibration     3          0.604              1.948              3.425
 Vibration     4          0.626              1.876              2.403
 Vibration     5          0.636              1.845              2.169
 Vibration     6          0.674              1.730              1.600
 Vibration     7          0.704              1.640              1.322
 Vibration     8          0.720              1.595              1.211
 Vibration     9          0.756              1.498              1.011
 Vibration    10          0.787              1.416              0.876
 Vibration    11          0.851              1.261              0.670
 Vibration    12          0.855              1.251              0.660
 Vibration    13          0.887              1.178              0.582
 Vibration    14          0.904              1.142              0.546

 Optimization completed.
    -- Stationary point found.
 Normal termination of Gaussian 16 at Tue Sep 17 10:00:49 2024.

 ----------------------------------------------------------------------
 #p M062X/def2tzvp geom=check guess=read scf(xqc,tight) integral(grid=u
 ltrafine) scrf(SMD, solvent=1,4-Dioxane) polar prop=efg volume
 ----------------------------------------------------------------------

 ---
 spe
 ---
 Structure from the checkpoint file:  "smiles_00003_conf_3.chk"
 Charge =  0 Multiplicity = 1

 SCF Done:  E(RM062X) =  -899.854535508     A.U. after   12 cycles

  Exact polarizability:     200.176      -3.258     125.623      -4.165      -6.359      79.475
 Approx polarizability:     196.949      -6.532     145.660      -6.502      -9.722      97.149

 Normal termination of Gaussian 16 at Tue Sep 17 10:29:38 2024.
 Gaussian 16:  ES64L-G16RevC.02  7-Dec-2021

 ----------------------------------------------------------------------
 #p M062X/def2tzvp geom=check guess=read scf(xqc,tight) integral(grid=u
 ltrafine) scrf(SMD, solvent=1,4-Dioxane) nmr=giao
 ----------------------------------------------------------------------

 ---
 spe
 ---
 Structure from the checkpoint file:  "smiles_00003_conf_3.chk"
 Charge =  0 Multiplicity = 1

                         Standard orientation:
 ---------------------------------------------------------------------
 Center     Atomic      Atomic             Coordinates (Angstroms)
 Number     Number       Type             X           Y           Z
 ---------------------------------------------------------------------
      1          6           0        2.906863    1.390696    0.685055
      2          6           0        3.125748    0.035369    0.044066
      3          8           0        4.241976   -0.427138   -0.134631
      4          7           0        2.016144   -0.704327   -0.333091
      5          6           0        0.638525   -0.432203   -0.217631
      6          6           0       -0.221896   -1.466975    0.176203
      7          6           0       -1.593548   -1.257056    0.271034
      8          6           0       -2.112330    0.004915   -0.013531
      9         17           0       -3.840552    0.283393    0.121600
     10          6           0       -1.276029    1.044488   -0.412620
     11          6           0        0.093309    0.819834   -0.530952
     12          1           0        1.998677    1.435112    1.289301
     13          1           0        3.781308    1.600382    1.301105
     14          1           0        2.843887    2.167130   -0.084087
     15          1           0        2.275402   -1.637406   -0.628600
     16          1           0        0.191986   -2.440700    0.419927
     17          1           0       -2.253811   -2.060372    0.576246
     18          1           0       -1.693808    2.015414   -0.651914
     19          1           0        0.733083    1.615756   -0.890243
 ---------------------------------------------------------------------

 SCF Done:  E(RM062X) =  -899.854535507     A.U. after    1 cycles

      1  C    Isotropic =   162.8762   Anisotropy =    34.2164

      2  C    Isotropic =    -5.1485   Anisotropy =   144.9184

      3  O    Isotropic =  -164.2007   Anisotropy =   677.7722

      4  N    Isotropic =    92.8203   Anisotropy =   131.3003

      5  C    Isotropic =    25.2577   Anisotropy =   183.9589

      6  C    Isotropic =    41.8010   Anisotropy =   179.7845

      7  C    Isotropic =    33.6334   Anisotropy =   187.5518

      8  C    Isotropic =    27.3808   Anisotropy =   139.7605

      9  Cl   Isotropic =   689.3346   Anisotropy =   505.7926

     10  C    Isotropic =    34.2839   Anisotropy =   186.8643

     11  C    Isotropic =    40.3403   Anisotropy =   192.8320

     12  H    Isotropic =    29.6570   Anisotropy =     4.9830

     13  H    Isotropic =    29.9245   Anisotropy =     7.9233

     14  H    Isotropic =    29.6491   Anisotropy =     6.5623

     15  H    Isotropic =    24.6756   Anisotropy =     5.5704

     16  H    Isotropic =    24.2110   Anisotropy =     7.3606

     17  H    Isotropic =    23.7292   Anisotropy =     8.3481

     18  H    Isotropic =    23.6942   Anisotropy =     8.7529

     19  H    Isotropic =    23.9240   Anisotropy =     8.7171

 The electronic state is 1-A.
 Alpha  occ. eigenvalues -- -102.64980 -19.60003 -14.78521 -10.65607 -10.61103
 Alpha  occ. eigenvalues --  -10.60474 -10.56397 -10.56394 -10.56132 -10.56125
 Alpha  occ. eigenvalues --  -10.54180  -9.81223  -7.53421  -7.52910  -7.52899
 Alpha  occ. eigenvalues --   -1.16819  -1.05379  -0.99555  -0.93473  -0.86681
 Alpha  occ. eigenvalues --   -0.84331  -0.82698  -0.72247  -0.70703  -0.66061
 Alpha  occ. eigenvalues --   -0.62450  -0.56739  -0.56331  -0.54770  -0.52751
 Alpha  occ. eigenvalues --   -0.52256  -0.50611  -0.48899  -0.47862  -0.46821
 Alpha  occ. eigenvalues --   -0.45111  -0.44472  -0.42667  -0.41494  -0.38246
 Alpha  occ. eigenvalues --   -0.35937  -0.34208  -0.32922  -0.28384
 Alpha virt. eigenvalues --   -0.00050   0.00139   0.05641   0.06059   0.07603
 Alpha virt. eigenvalues --    0.08859   0.11065   0.11569   0.12442   0.13846
 Alpha virt. eigenvalues --    0.14420   0.16358   0.16680   0.17281   0.17942

 Mulliken charges:
               1
     1  C   -0.534575
     2  C    0.351569
     3  O   -0.394823
     4  N   -0.378626
     5  C    0.281751
     6  C   -0.238608
     7  C   -0.176367
     8  C    0.060885
     9  Cl  -0.098782
    10  C   -0.163837
    11  C   -0.249741
    12  H    0.190425
    13  H    0.174705
    14  H    0.180704
    15  H    0.264073
    16  H    0.182752
    17  H    0.177249
    18  H    0.177498
    19  H    0.193747
 Sum of Mulliken charges =  -0.00000

 Dipole moment (field-independent basis, Debye):
    X=             -1.6534    Y=              0.4765    Z=              0.2867  Tot=              1.7444
 Quadrupole moment (field-independent basis, Debye-Ang):
   XX=            -98.3841   YY=            -61.0718   ZZ=            -72.6745
   XY=              5.6533   XZ=              1.6349   YZ=             -1.3630

 Normal termination of Gaussian 16 at Tue Sep 17 10:39:57 2024.
