 Gaussian 16, Revision C.02,

 ----------------------------------------------------------------------
 #p B3LYP/6-31G(d,p) EmpiricalDispersion=GD3BJ opt freq scf(xqc,tight)
 integral(grid=ultrafine)
 ----------------------------------------------------------------------

 ----------------------------------
 opt-freq conformers_unique/conf_aa
 ----------------------------------
 Symbolic Z-matrix:
 Charge =  0 Multiplicity = 1

 SCF Done:  E(RB3LYP) =  -959.083995468     A.U. after   14 cycles
 SCF Done:  E(RB3LYP) =  -959.085623251     A.U. after   12 cycles
 SCF Done:  E(RB3LYP) =  -959.084849342     A.U. after   13 cycles
 SCF Done:  E(RB3LYP) =  -959.085919862     A.U. after   11 cycles
 SCF Done:  E(RB3LYP) =  -959.085939713     A.U. after   10 cycles
 SCF Done:  E(RB3LYP) =  -959.085965369     A.U. after   11 cycles
 SCF Done:  E(RB3LYP) =  -959.085971063     A.U. after   11 cycles
 SCF Done:  E(RB3LYP) =  -959.085978997     A.U. after    9 cycles
 SCF Done:  E(RB3LYP) =  -959.086012337     A.U. after   12 cycles
 SCF Done:  E(RB3LYP) =  -959.086048944     A.U. after   11 cycles
 SCF Done:  E(RB3LYP) =  -959.066119084     A.U. after   14 cycles
 SCF Done:  E(RB3LYP) =  -959.086150176     A.U. after   12 cycles
 SCF Done:  E(RB3LYP) =  -959.086171703     A.U. after   11 cycles
 SCF Done:  E(RB3LYP) =  -959.086177839     A.U. after   10 cycles
 SCF Done:  E(RB3LYP) =  -959.086178952     A.U. after   10 cycles
 SCF Done:  E(RB3LYP) =  -959.086179087     A.U. after    8 cycles
 SCF Done:  E(RB3LYP) =  -959.086179115     A.U. after    6 cycles
 Optimization completed.
    -- Stationary point found.
 Normal termination of Gaussian 16 at Tue Sep 17 09:47:34 2024.

 ----------------------------------------------------------------------
 #P Geom=AllCheck Guess=TCheck SCRF=Check GenChk RB3LYP/6-31G(d,p) Freq
 ----------------------------------------------------------------------

 Structure from the checkpoint file:  "smiles_00075_conf_0.chk"
 ----------------------------------
 opt-freq conformers_unique/conf_aa
 ----------------------------------
 Charge =  0 Multiplicity = 1

 SCF Done:  E(RB3LYP) =  -959.086179115     A.U. after    1 cycles

                      1                      2                      3
                      A                      A                      A
 Frequencies --     18.4401                31.4176                69.4984
 Red. masses --      5.2590                 4.1674                 6.4089
 Frc consts  --      0.0011                 0.0024                 0.0182
 IR Inten    --      1.9545                 0.4177                 0.9460

                      4                      5                      6
                      A                      A                      A
 Frequencies --    117.2747               132.4127               192.2633
 Red. masses --      1.6301                 2.0882                 4.8481
 Frc consts  --      0.0132                 0.0216                 0.1056
 IR Inten    --      0.4660                 0.0778                 4.2370

                      7                      8                      9
                      A                      A                      A
 Frequencies --    228.2636               284.1862               313.7179
 Red. masses --      6.6296                 3.6928                 5.2202
 Frc consts  --      0.2035                 0.1757                 0.3027
 IR Inten    --      1.8304                 8.0010                 4.3733

                     10                     11                     12
                      A                      A                      A
 Frequencies --    357.8143               394.5541               420.3065
 Red. masses --      4.3617                 8.1521                 3.0612
 Frc consts  --      0.3290                 0.7477                 0.3186
 IR Inten    --      1.9622                15.0673                 0.0600

                     13                     14                     15
                      A                      A                      A
 Frequencies --    425.1981               506.6217               602.0331
 Red. masses --      2.5235                 3.0964                 5.7067
 Frc consts  --      0.2688                 0.4682                 1.2186
 IR Inten    --      3.8298                10.5014                10.4497

                     16                     17                     18
                      A                      A                      A
 Frequencies --    647.6857               676.5672               709.1720
 Red. masses --      6.7446                 4.6727                 4.3956
 Frc consts  --      1.6670                 1.2602                 1.3025
 IR Inten    --      0.9919                 8.2692                 2.2373

                     19                     20                     21
                      A                      A                      A
 Frequencies --    778.7386               822.7085               842.6953
 Red. masses --      4.5667                 1.7975                 1.2784
 Frc consts  --      1.6317                 0.7168                 0.5349
 IR Inten    --     28.6774                24.6267                 1.8636

                     22                     23                     24
                      A                      A                      A
 Frequencies --    856.3866               892.7723               957.5462
 Red. masses --      3.4489                 3.2934                 1.5202
 Frc consts  --      1.4903                 1.5466                 0.8212
 IR Inten    --     10.9722                 8.2845                 0.3348

                     25                     26                     27
                      A                      A                      A
 Frequencies --    964.5339               976.9985              1035.0975
 Red. masses --      1.8745                 1.3363                 3.8663
 Frc consts  --      1.0275                 0.7515                 2.4407
 IR Inten    --      1.2748                 0.3498                30.4362

                     28                     29                     30
                      A                      A                      A
 Frequencies --   1048.1694              1113.0048              1135.1840
 Red. masses --      4.9097                 2.9434                 1.3911
 Frc consts  --      3.1781                 2.1483                 1.0562
 IR Inten    --     32.8842                57.7163                12.0113

                     31                     32                     33
                      A                      A                      A
 Frequencies --   1167.0035              1179.6911              1210.6314
 Red. masses --      1.3913                 1.2817                 1.1429
 Frc consts  --      1.1164                 1.0509                 0.9869
 IR Inten    --    106.9445                 1.4361                 1.5829

                     34                     35                     36
                      A                      A                      A
 Frequencies --   1212.2062              1221.9971              1292.9173
 Red. masses --      1.4687                 2.7055                 2.0237
 Frc consts  --      1.2715                 2.3803                 1.9932
 IR Inten    --      3.6688                 3.9524               169.7246

                     37                     38                     39
                      A                      A                      A
 Frequencies --   1325.8950              1332.2648              1368.1666
 Red. masses --      2.0498                 2.0612                 2.4963
 Frc consts  --      2.1231                 2.1555                 2.7531
 IR Inten    --    109.4283                12.5703                69.1662

                     40                     41                     42
                      A                      A                      A
 Frequencies --   1452.3994              1480.6679              1489.0845
 Red. masses --      2.6094                 1.2038                 1.1297
 Frc consts  --      3.2431                 1.5550                 1.4759
 IR Inten    --     11.0181                10.6811                15.4087

                     43                     44                     45
                      A                      A                      A
 Frequencies --   1496.0766              1509.2971              1536.0250
 Red. masses --      1.0465                 1.0506                 2.3502
 Frc consts  --      1.3801                 1.4100                 3.2670
 IR Inten    --      6.5790                 8.0137                67.0164

                     46                     47                     48
                      A                      A                      A
 Frequencies --   1632.4040              1655.3157              1821.5522
 Red. masses --      6.8821                 5.7613                10.9225
 Frc consts  --     10.8050                 9.3011                21.3529
 IR Inten    --      0.6928                 5.2508               187.0555

                     49                     50                     51
                      A                      A                      A
 Frequencies --   3067.5475              3075.8692              3139.8669
 Red. masses --      1.0297                 1.0612                 1.1039
 Frc consts  --      5.7089                 5.9152                 6.4122
 IR Inten    --     29.8629                10.4422                 5.8162

                     52                     53                     54
                      A                      A                      A
 Frequencies --   3146.0357              3179.2153              3189.4874
 Red. masses --      1.1071                 1.1072                 1.0895
 Frc consts  --      6.4558                 6.5938                 6.5301
 IR Inten    --     19.8038                14.9041                 9.5109

                     55                     56                     57
                      A                      A                      A
 Frequencies --   3204.1199              3221.3950              3223.0965
 Red. masses --      1.0891                 1.0938                 1.0950
 Frc consts  --      6.5876                 6.6878                 6.7020
 IR Inten    --      0.9092                 4.4837                 0.9093

 - Thermochemistry -
 -------------------
 Temperature   298.150 Kelvin.  Pressure   1.00000 Atm.
 Atom     1 has atomic number  6 and mass  12.00000

 Molecular mass:   184.02911 amu.
 Principal axes and moments of inertia in atomic units:
                           1         2         3
     Eigenvalues --   863.577845351.211545467.96216
           X            0.99991   0.00080   0.01339
           Y           -0.00045   0.99967  -0.02571
           Z           -0.01341   0.02570   0.99958
 This molecule is an asymmetric top.
 Rotational symmetry number  1.
 Warning -- assumption of classical behavior for rotation
           may cause significant error
 Rotational temperatures (Kelvin)      0.10030     0.01619     0.01584
 Rotational constants (GHZ):           2.08984     0.33726     0.33006
 Zero-point vibrational energy     426956.1 (Joules/Mol)
                                  102.04497 (Kcal/Mol)
 Warning -- explicit consideration of  15 degrees of freedom as
           vibrations may cause significant error
 Vibrational temperatures:     26.53    45.20    99.99   168.73   190.51
          (Kelvin)            276.62   328.42   408.88   451.37   514.81
                              567.68   604.73   611.77   728.92   866.19
                              931.88   973.43  1020.34  1120.43  1183.69
                             1212.45  1232.15  1284.50  1377.70  1387.75
                             1405.68  1489.27  1508.08  1601.37  1633.28
                             1679.06  1697.31  1741.83  1744.09  1758.18
                             1860.22  1907.67  1916.83  1968.49  2089.68
                             2130.35  2142.46  2152.52  2171.54  2210.00
                             2348.67  2381.63  2620.81  4413.52  4425.49
                             4517.57  4526.44  4574.18  4588.96  4610.01
                             4634.87  4637.32

 Zero-point correction=                           0.162619 (Hartree/Particle)
 Thermal correction to Energy=                    0.174061
 Thermal correction to Enthalpy=                  0.175005
 Thermal correction to Gibbs Free Energy=         0.122406
 Sum of electronic and zero-point Energies=           -958.923560
 Sum of electronic and thermal Energies=              -958.912118
 Sum of electronic and thermal Enthalpies=            -958.911174
 Sum of electronic and thermal Free Energies=         -958.963773

                     E (Thermal)             CV                S
                      KCal/Mol        Cal/Mol-Kelvin    Cal/Mol-Kelvin
 Total                  109.225             41.055            110.704
 Electronic               0.000              0.000              0.000
 Translational            0.889              2.981             41.536
 Rotational               0.889              2.981             31.602
 Vibrational            107.447             35.093             37.566
 Vibration     1          0.593              1.986              6.795
 Vibration     2          0.594              1.983              5.738
 Vibration     3          0.598              1.969              4.168
 Vibration     4          0.608              1.935              3.145
 Vibration     5          0.613              1.921              2.911
 Vibration     6          0.634              1.851              2.206
 Vibration     7          0.651              1.798              1.893
 Vibration     8          0.683              1.703              1.508
 Vibration     9          0.702              1.647              1.343
 Vibration    10          0.733              1.559              1.132
 Vibration    11          0.762              1.482              0.983
 Vibration    12          0.783              1.426              0.891
 Vibration    13          0.787              1.415              0.874
 Vibration    14          0.862              1.235              0.642
 Vibration    15          0.960              1.027              0.446

                           ! Non-Optimized Parameters !
 Normal termination of Gaussian 16 at Tue Sep 17 09:48:57 2024.

 ----------------------------------------------------------------------
 #p M062X/def2tzvp geom=check guess=read scf(xqc,tight) integral(grid=u
 ltrafine) scrf(SMD, solvent=1,4-Dioxane) polar prop=efg volume
 ----------------------------------------------------------------------

 ---
 spe
 ---
 Structure from the checkpoint file:  "smiles_00075_conf_0.chk"
 Charge =  0 Multiplicity = 1

 SCF Done:  E(RM062X) =  -959.029913359     A.U. after   12 cycles

  Exact polarizability:     179.725       2.361     135.063     -14.353       1.649      99.575
 Approx polarizability:     174.015       1.462     164.744     -18.365       2.862     113.942

 Normal termination of Gaussian 16 at Tue Sep 17 10:31:53 2024.
 Gaussian 16:  ES64L-G16RevC.02  7-Dec-2021

 ----------------------------------------------------------------------
 #p M062X/def2tzvp geom=check guess=read scf(xqc,tight) integral(grid=u
 ltrafine) scrf(SMD, solvent=1,4-Dioxane) nmr=giao
 ----------------------------------------------------------------------

 ---
 spe
 ---
 Structure from the checkpoint file:  "smiles_00075_conf_0.chk"
 Charge =  0 Multiplicity = 1

                         Standard orientation:
 ---------------------------------------------------------------------
 Center     Atomic      Atomic             Coordinates (Angstroms)
 Number     Number       Type             X           Y           Z
 ---------------------------------------------------------------------
      1          6           0       -4.007184   -0.114196   -1.535106
      2          8           0       -3.139777   -0.680539   -0.537118
      3          6           0       -2.602021    0.208123    0.321823
      4          8           0       -2.830938    1.398428    0.293596
      5          6           0       -1.640824   -0.463784    1.284820
      6          6           0       -0.210500   -0.300007    0.804232
      7          6           0        0.341376    0.978054    0.652291
      8          6           0        1.650897    1.141964    0.209243
      9          6           0        2.414308    0.013067   -0.085432
     10         17           0        4.070178    0.211416   -0.641919
     11          6           0        1.887456   -1.267913    0.052364
     12          6           0        0.572959   -1.414305    0.495118
     13          1           0       -3.461928    0.606545   -2.148685
     14          1           0       -4.853222    0.391678   -1.064473
     15          1           0       -4.348111   -0.954199   -2.138903
     16          1           0       -1.771027    0.019662    2.257621
     17          1           0       -1.891030   -1.521654    1.380711
     18          1           0       -0.268249    1.849122    0.869412
     19          1           0        2.077539    2.131381    0.092271
     20          1           0        2.493962   -2.134337   -0.184307
     21          1           0        0.155958   -2.411417    0.601028
 ---------------------------------------------------------------------

 SCF Done:  E(RM062X) =  -959.029913359     A.U. after    1 cycles

      1  C    Isotropic =   130.3908   Anisotropy =    74.1884

      2  O    Isotropic =   120.6494   Anisotropy =   180.6611

      3  C    Isotropic =    -9.8093   Anisotropy =   122.0397

      4  O    Isotropic =  -151.1582   Anisotropy =   676.4124

      5  C    Isotropic =   139.9884   Anisotropy =    21.9215

      6  C    Isotropic =    27.6471   Anisotropy =   219.1272

      7  C    Isotropic =    32.4516   Anisotropy =   211.4381

      8  C    Isotropic =    34.2883   Anisotropy =   186.4250

      9  C    Isotropic =    22.6105   Anisotropy =   144.0931

     10  Cl   Isotropic =   685.4482   Anisotropy =   507.8893

     11  C    Isotropic =    35.0368   Anisotropy =   184.9712

     12  C    Isotropic =    32.5038   Anisotropy =   189.1966

     13  H    Isotropic =    28.4062   Anisotropy =     7.7214

     14  H    Isotropic =    28.1218   Anisotropy =     8.5182

     15  H    Isotropic =    28.3456   Anisotropy =     7.8070

     16  H    Isotropic =    28.1519   Anisotropy =     5.4489

     17  H    Isotropic =    28.3232   Anisotropy =     4.0746

     18  H    Isotropic =    23.2038   Anisotropy =     9.3322

     19  H    Isotropic =    23.6853   Anisotropy =     8.9020

     20  H    Isotropic =    23.7716   Anisotropy =     8.5918

     21  H    Isotropic =    23.8139   Anisotropy =     7.8036

 The electronic state is 1-A.
 Alpha  occ. eigenvalues -- -102.64594 -19.67720 -19.62131 -10.67836 -10.60784
 Alpha  occ. eigenvalues --  -10.58846 -10.56628 -10.55894 -10.55671 -10.55620
 Alpha  occ. eigenvalues --  -10.55478 -10.55208  -9.80841  -7.53036  -7.52530
 Alpha  occ. eigenvalues --   -7.52517  -1.23598  -1.14347  -0.99637  -0.94632
 Alpha  occ. eigenvalues --   -0.88498  -0.85655  -0.82722  -0.77871  -0.70832
 Alpha  occ. eigenvalues --   -0.67688  -0.65236  -0.59699  -0.58521  -0.57180
 Alpha  occ. eigenvalues --   -0.56034  -0.54569  -0.53435  -0.50115  -0.49862
 Alpha  occ. eigenvalues --   -0.48613  -0.47670  -0.46272  -0.45430  -0.43617
 Alpha  occ. eigenvalues --   -0.42061  -0.41564  -0.39838  -0.38182  -0.37806
 Alpha  occ. eigenvalues --   -0.36052  -0.32118  -0.29758
 Alpha virt. eigenvalues --    0.00440   0.00800   0.04840   0.06487   0.07829
 Alpha virt. eigenvalues --    0.09870   0.10642   0.11665   0.12401   0.13400
 Alpha virt. eigenvalues --    0.14268   0.14531   0.15627   0.16293   0.16716

 Mulliken charges:
               1
     1  C   -0.267606
     2  O   -0.271669
     3  C    0.397805
     4  O   -0.366942
     5  C   -0.365846
     6  C    0.082434
     7  C   -0.187646
     8  C   -0.175627
     9  C    0.074519
    10  Cl  -0.103509
    11  C   -0.176453
    12  C   -0.188413
    13  H    0.161182
    14  H    0.160159
    15  H    0.156535
    16  H    0.192589
    17  H    0.172036
    18  H    0.189114
    19  H    0.175486
    20  H    0.173922
    21  H    0.167929
 Sum of Mulliken charges =  -0.00000

 Dipole moment (field-independent basis, Debye):
    X=             -2.1214    Y=             -2.0655    Z=              0.0378  Tot=              2.9611
 Quadrupole moment (field-independent basis, Debye-Ang):
   XX=            -78.7040   YY=            -74.9762   ZZ=            -74.5758
   XY=              4.6421   XZ=              4.0933   YZ=             -1.0770

 Normal termination of Gaussian 16 at Tue Sep 17 10:47:33 2024.
