 Gaussian 16, Revision C.02,

 ----------------------------------------------------------------------
 #p B3LYP/6-31G(d,p) EmpiricalDispersion=GD3BJ opt freq scf(xqc,tight)
 integral(grid=ultrafine)
 ----------------------------------------------------------------------

 ----------------------------------
 opt-freq conformers_unique/conf_ac
 ----------------------------------
 Symbolic Z-matrix:
 Charge =  0 Multiplicity = 1

 SCF Done:  E(RB3LYP) =  -959.081872742     A.U. after   14 cycles
 SCF Done:  E(RB3LYP) =  -959.083940711     A.U. after   12 cycles
 SCF Done:  E(RB3LYP) =  -959.083770170     A.U. after   11 cycles
 SCF Done:  E(RB3LYP) =  -959.084173475     A.U. after   11 cycles
 SCF Done:  E(RB3LYP) =  -959.084253623     A.U. after   11 cycles
 SCF Done:  E(RB3LYP) =  -959.084408528     A.U. after   13 cycles
 SCF Done:  E(RB3LYP) =  -959.084390160     A.U. after   13 cycles
 SCF Done:  E(RB3LYP) =  -959.084658438     A.U. after   13 cycles
 SCF Done:  E(RB3LYP) =  -959.085123495     A.U. after   15 cycles
 SCF Done:  E(RB3LYP) =  -959.085356363     A.U. after   12 cycles
 SCF Done:  E(RB3LYP) =  -959.086128458     A.U. after   10 cycles
 SCF Done:  E(RB3LYP) =  -959.085837347     A.U. after   14 cycles
 SCF Done:  E(RB3LYP) =  -959.086164249     A.U. after   12 cycles
 SCF Done:  E(RB3LYP) =  -959.086176464     A.U. after   10 cycles
 SCF Done:  E(RB3LYP) =  -959.086178613     A.U. after   10 cycles
 SCF Done:  E(RB3LYP) =  -959.086179081     A.U. after    8 cycles
 SCF Done:  E(RB3LYP) =  -959.086179134     A.U. after    8 cycles
 Optimization completed.
    -- Stationary point found.
 Normal termination of Gaussian 16 at Tue Sep 17 09:52:15 2024.

 ----------------------------------------------------------------------
 #P Geom=AllCheck Guess=TCheck SCRF=Check GenChk RB3LYP/6-31G(d,p) Freq
 ----------------------------------------------------------------------

 Structure from the checkpoint file:  "smiles_00075_conf_2.chk"
 ----------------------------------
 opt-freq conformers_unique/conf_ac
 ----------------------------------
 Charge =  0 Multiplicity = 1

 SCF Done:  E(RB3LYP) =  -959.086179134     A.U. after    1 cycles

                      1                      2                      3
                      A                      A                      A
 Frequencies --     18.5984                31.4758                69.5031
 Red. masses --      5.2600                 4.1681                 6.4080
 Frc consts  --      0.0011                 0.0024                 0.0182
 IR Inten    --      1.9529                 0.4183                 0.9460

                      4                      5                      6
                      A                      A                      A
 Frequencies --    117.2662               132.4193               192.2396
 Red. masses --      1.6352                 2.0797                 4.8492
 Frc consts  --      0.0132                 0.0215                 0.1056
 IR Inten    --      0.4670                 0.0751                 4.2399

                      7                      8                      9
                      A                      A                      A
 Frequencies --    228.2831               284.1770               313.7320
 Red. masses --      6.6297                 3.6932                 5.2177
 Frc consts  --      0.2036                 0.1757                 0.3026
 IR Inten    --      1.8281                 7.9951                 4.3798

                     10                     11                     12
                      A                      A                      A
 Frequencies --    357.8105               394.5970               420.3109
 Red. masses --      4.3624                 8.1681                 3.0613
 Frc consts  --      0.3291                 0.7493                 0.3186
 IR Inten    --      1.9630                15.0422                 0.0611

                     13                     14                     15
                      A                      A                      A
 Frequencies --    425.1875               506.6359               602.0675
 Red. masses --      2.5217                 3.0962                 5.7104
 Frc consts  --      0.2686                 0.4682                 1.2196
 IR Inten    --      3.8454                10.4995                10.4362

                     16                     17                     18
                      A                      A                      A
 Frequencies --    647.6840               676.5738               709.1811
 Red. masses --      6.7448                 4.6720                 4.3955
 Frc consts  --      1.6670                 1.2600                 1.3025
 IR Inten    --      0.9927                 8.2717                 2.2392

                     19                     20                     21
                      A                      A                      A
 Frequencies --    778.7684               822.7197               842.7272
 Red. masses --      4.5683                 1.7975                 1.2784
 Frc consts  --      1.6324                 0.7168                 0.5349
 IR Inten    --     28.6934                24.6398                 1.8645

                     22                     23                     24
                      A                      A                      A
 Frequencies --    856.4096               892.7143               957.5675
 Red. masses --      3.4491                 3.2917                 1.5200
 Frc consts  --      1.4905                 1.5456                 0.8212
 IR Inten    --     10.9737                 8.2669                 0.3346

                     25                     26                     27
                      A                      A                      A
 Frequencies --    964.5599               977.0344              1035.0977
 Red. masses --      1.8746                 1.3362                 3.8659
 Frc consts  --      1.0276                 0.7515                 2.4404
 IR Inten    --      1.2733                 0.3493                30.4209

                     28                     29                     30
                      A                      A                      A
 Frequencies --   1048.2257              1113.0113              1135.1962
 Red. masses --      4.9087                 2.9439                 1.3912
 Frc consts  --      3.1778                 2.1487                 1.0563
 IR Inten    --     32.9049                57.7162                12.0249

                     31                     32                     33
                      A                      A                      A
 Frequencies --   1166.9997              1179.7099              1210.6447
 Red. masses --      1.3911                 1.2817                 1.1429
 Frc consts  --      1.1162                 1.0510                 0.9870
 IR Inten    --    106.8435                 1.4549                 1.5886

                     34                     35                     36
                      A                      A                      A
 Frequencies --   1212.2041              1222.0052              1292.9702
 Red. masses --      1.4686                 2.7054                 2.0232
 Frc consts  --      1.2714                 2.3803                 1.9928
 IR Inten    --      3.6602                 3.9485               169.5650

                     37                     38                     39
                      A                      A                      A
 Frequencies --   1325.8628              1332.2511              1368.1388
 Red. masses --      2.0566                 2.0552                 2.4967
 Frc consts  --      2.1300                 2.1492                 2.7534
 IR Inten    --    109.8094                12.3309                69.0834

                     40                     41                     42
                      A                      A                      A
 Frequencies --   1452.4070              1480.6813              1489.0851
 Red. masses --      2.6096                 1.2036                 1.1299
 Frc consts  --      3.2434                 1.5547                 1.4762
 IR Inten    --     11.0109                10.6998                15.3925

                     43                     44                     45
                      A                      A                      A
 Frequencies --   1496.0905              1509.3079              1536.0266
 Red. masses --      1.0465                 1.0506                 2.3501
 Frc consts  --      1.3801                 1.4100                 3.2669
 IR Inten    --      6.5952                 7.9999                67.0148

                     46                     47                     48
                      A                      A                      A
 Frequencies --   1632.3854              1655.3219              1821.5178
 Red. masses --      6.8818                 5.7609                10.9218
 Frc consts  --     10.8043                 9.3005                21.3508
 IR Inten    --      0.6896                 5.2472               187.1269

                     49                     50                     51
                      A                      A                      A
 Frequencies --   3067.5203              3075.9030              3139.8828
 Red. masses --      1.0297                 1.0612                 1.1039
 Frc consts  --      5.7089                 5.9153                 6.4124
 IR Inten    --     29.8415                10.4433                 5.8155

                     52                     53                     54
                      A                      A                      A
 Frequencies --   3145.9974              3179.1615              3189.4300
 Red. masses --      1.1071                 1.1072                 1.0895
 Frc consts  --      6.4556                 6.5936                 6.5298
 IR Inten    --     19.8220                14.9039                 9.5131

                     55                     56                     57
                      A                      A                      A
 Frequencies --   3204.0530              3221.3581              3223.0558
 Red. masses --      1.0891                 1.0938                 1.0950
 Frc consts  --      6.5873                 6.6877                 6.7018
 IR Inten    --      0.9087                 4.4842                 0.9092

 - Thermochemistry -
 -------------------
 Temperature   298.150 Kelvin.  Pressure   1.00000 Atm.
 Atom     1 has atomic number  6 and mass  12.00000

 Molecular mass:   184.02911 amu.
 Principal axes and moments of inertia in atomic units:
                           1         2         3
     Eigenvalues --   863.927625350.207245466.50215
           X            0.99991  -0.00079   0.01340
           Y            0.00044   0.99966   0.02601
           Z           -0.01342  -0.02600   0.99957
 This molecule is an asymmetric top.
 Rotational symmetry number  1.
 Warning -- assumption of classical behavior for rotation
           may cause significant error
 Rotational temperatures (Kelvin)      0.10026     0.01619     0.01584
 Rotational constants (GHZ):           2.08900     0.33732     0.33015
 Zero-point vibrational energy     426957.7 (Joules/Mol)
                                  102.04533 (Kcal/Mol)
 Warning -- explicit consideration of  15 degrees of freedom as
           vibrations may cause significant error
 Vibrational temperatures:     26.76    45.29   100.00   168.72   190.52
          (Kelvin)            276.59   328.45   408.87   451.39   514.81
                              567.74   604.73   611.75   728.94   866.24
                              931.87   973.44  1020.35  1120.47  1183.71
                             1212.50  1232.18  1284.42  1377.73  1387.79
                             1405.73  1489.27  1508.16  1601.37  1633.29
                             1679.05  1697.34  1741.85  1744.09  1758.19
                             1860.30  1907.62  1916.81  1968.45  2089.69
                             2130.37  2142.46  2152.54  2171.56  2210.00
                             2348.64  2381.64  2620.76  4413.48  4425.54
                             4517.59  4526.39  4574.10  4588.88  4609.92
                             4634.82  4637.26

 Zero-point correction=                           0.162620 (Hartree/Particle)
 Thermal correction to Energy=                    0.174061
 Thermal correction to Enthalpy=                  0.175005
 Thermal correction to Gibbs Free Energy=         0.122416
 Sum of electronic and zero-point Energies=           -958.923560
 Sum of electronic and thermal Energies=              -958.912118
 Sum of electronic and thermal Enthalpies=            -958.911174
 Sum of electronic and thermal Free Energies=         -958.963763

                     E (Thermal)             CV                S
                      KCal/Mol        Cal/Mol-Kelvin    Cal/Mol-Kelvin
 Total                  109.225             41.054            110.683
 Electronic               0.000              0.000              0.000
 Translational            0.889              2.981             41.536
 Rotational               0.889              2.981             31.602
 Vibrational            107.447             35.093             37.545
 Vibration     1          0.593              1.986              6.778
 Vibration     2          0.594              1.983              5.734
 Vibration     3          0.598              1.969              4.167
 Vibration     4          0.608              1.935              3.145
 Vibration     5          0.613              1.921              2.911
 Vibration     6          0.634              1.851              2.206
 Vibration     7          0.651              1.798              1.892
 Vibration     8          0.683              1.703              1.508
 Vibration     9          0.702              1.647              1.343
 Vibration    10          0.733              1.559              1.132
 Vibration    11          0.762              1.482              0.983
 Vibration    12          0.783              1.426              0.891
 Vibration    13          0.787              1.415              0.875
 Vibration    14          0.862              1.235              0.642
 Vibration    15          0.960              1.027              0.446

 Optimization completed.
    -- Stationary point found.
 Normal termination of Gaussian 16 at Tue Sep 17 09:53:40 2024.

 ----------------------------------------------------------------------
 #p M062X/def2tzvp geom=check guess=read scf(xqc,tight) integral(grid=u
 ltrafine) scrf(SMD, solvent=1,4-Dioxane) polar prop=efg volume
 ----------------------------------------------------------------------

 ---
 spe
 ---
 Structure from the checkpoint file:  "smiles_00075_conf_2.chk"
 Charge =  0 Multiplicity = 1

 SCF Done:  E(RM062X) =  -959.029914229     A.U. after   12 cycles

  Exact polarizability:     179.704      -2.360     135.059     -14.359      -1.667      99.597
 Approx polarizability:     174.006      -1.459     164.736     -18.373      -2.896     113.961

 Normal termination of Gaussian 16 at Tue Sep 17 10:36:38 2024.
 Gaussian 16:  ES64L-G16RevC.02  7-Dec-2021

 ----------------------------------------------------------------------
 #p M062X/def2tzvp geom=check guess=read scf(xqc,tight) integral(grid=u
 ltrafine) scrf(SMD, solvent=1,4-Dioxane) nmr=giao
 ----------------------------------------------------------------------

 ---
 spe
 ---
 Structure from the checkpoint file:  "smiles_00075_conf_2.chk"
 Charge =  0 Multiplicity = 1

                         Standard orientation:
 ---------------------------------------------------------------------
 Center     Atomic      Atomic             Coordinates (Angstroms)
 Number     Number       Type             X           Y           Z
 ---------------------------------------------------------------------
      1          6           0       -4.005500    0.112540   -1.536366
      2          8           0       -3.138400    0.679994   -0.538770
      3          6           0       -2.602094   -0.207518    0.322275
      4          8           0       -2.831948   -1.397694    0.296044
      5          6           0       -1.640984    0.465236    1.284736
      6          6           0       -0.210699    0.300868    0.804247
      7          6           0        0.340865   -0.977391    0.652951
      8          6           0        1.650336   -1.141838    0.209944
      9          6           0        2.414012   -0.013280   -0.085364
     10         17           0        4.069798   -0.212296   -0.641807
     11          6           0        1.887443    1.267903    0.051772
     12          6           0        0.573004    1.414829    0.494496
     13          1           0       -4.850842   -0.394200   -1.065447
     14          1           0       -3.459615   -0.607711   -2.149996
     15          1           0       -4.347465    0.952023   -2.140311
     16          1           0       -1.891071    1.523222    1.379640
     17          1           0       -1.771219   -0.017315    2.257973
     18          1           0       -0.268939   -1.848220    0.870558
     19          1           0        2.076724   -2.131428    0.093472
     20          1           0        2.494136    2.134068   -0.185389
     21          1           0        0.156218    2.412093    0.599877
 ---------------------------------------------------------------------

 SCF Done:  E(RM062X) =  -959.029914229     A.U. after    1 cycles

      1  C    Isotropic =   130.3926   Anisotropy =    74.1871

      2  O    Isotropic =   120.6787   Anisotropy =   180.6650

      3  C    Isotropic =    -9.8093   Anisotropy =   122.0495

      4  O    Isotropic =  -151.2118   Anisotropy =   676.4021

      5  C    Isotropic =   139.9861   Anisotropy =    21.9171

      6  C    Isotropic =    27.6477   Anisotropy =   219.1386

      7  C    Isotropic =    32.4595   Anisotropy =   211.4385

      8  C    Isotropic =    34.2868   Anisotropy =   186.4263

      9  C    Isotropic =    22.6099   Anisotropy =   144.1000

     10  Cl   Isotropic =   685.4537   Anisotropy =   507.8601

     11  C    Isotropic =    35.0325   Anisotropy =   184.9763

     12  C    Isotropic =    32.4989   Anisotropy =   189.1954

     13  H    Isotropic =    28.1183   Anisotropy =     8.5111

     14  H    Isotropic =    28.4104   Anisotropy =     7.7284

     15  H    Isotropic =    28.3455   Anisotropy =     7.8085

     16  H    Isotropic =    28.3232   Anisotropy =     4.0758

     17  H    Isotropic =    28.1516   Anisotropy =     5.4495

     18  H    Isotropic =    23.2048   Anisotropy =     9.3337

     19  H    Isotropic =    23.6854   Anisotropy =     8.9018

     20  H    Isotropic =    23.7715   Anisotropy =     8.5913

     21  H    Isotropic =    23.8136   Anisotropy =     7.8029

 The electronic state is 1-A.
 Alpha  occ. eigenvalues -- -102.64594 -19.67720 -19.62131 -10.67836 -10.60785
 Alpha  occ. eigenvalues --  -10.58846 -10.56629 -10.55894 -10.55672 -10.55621
 Alpha  occ. eigenvalues --  -10.55478 -10.55208  -9.80841  -7.53037  -7.52530
 Alpha  occ. eigenvalues --   -7.52518  -1.23598  -1.14347  -0.99637  -0.94633
 Alpha  occ. eigenvalues --   -0.88499  -0.85656  -0.82721  -0.77872  -0.70832
 Alpha  occ. eigenvalues --   -0.67688  -0.65237  -0.59699  -0.58522  -0.57180
 Alpha  occ. eigenvalues --   -0.56034  -0.54569  -0.53435  -0.50115  -0.49862
 Alpha  occ. eigenvalues --   -0.48613  -0.47672  -0.46271  -0.45432  -0.43616
 Alpha  occ. eigenvalues --   -0.42062  -0.41564  -0.39839  -0.38182  -0.37806
 Alpha  occ. eigenvalues --   -0.36052  -0.32119  -0.29758
 Alpha virt. eigenvalues --    0.00440   0.00799   0.04841   0.06487   0.07829
 Alpha virt. eigenvalues --    0.09869   0.10642   0.11664   0.12401   0.13400
 Alpha virt. eigenvalues --    0.14268   0.14531   0.15627   0.16292   0.16715

 Mulliken charges:
               1
     1  C   -0.267606
     2  O   -0.271656
     3  C    0.397760
     4  O   -0.366942
     5  C   -0.365757
     6  C    0.082306
     7  C   -0.187614
     8  C   -0.175628
     9  C    0.074500
    10  Cl  -0.103494
    11  C   -0.176441
    12  C   -0.188406
    13  H    0.160164
    14  H    0.161176
    15  H    0.156534
    16  H    0.172058
    17  H    0.192569
    18  H    0.189144
    19  H    0.175487
    20  H    0.173924
    21  H    0.167925
 Sum of Mulliken charges =  -0.00000

 Dipole moment (field-independent basis, Debye):
    X=             -2.1187    Y=              2.0654    Z=              0.0343  Tot=              2.9591
 Quadrupole moment (field-independent basis, Debye-Ang):
   XX=            -78.7180   YY=            -74.9707   ZZ=            -74.5762
   XY=             -4.6396   XZ=              4.1027   YZ=              1.0873

 Normal termination of Gaussian 16 at Tue Sep 17 10:52:35 2024.
