 Gaussian 16, Revision C.02,

 ----------------------------------------------------------------------
 #p B3LYP/6-31G(d,p) EmpiricalDispersion=GD3BJ opt freq scf(xqc,tight)
 integral(grid=ultrafine)
 ----------------------------------------------------------------------

 ----------------------------------
 opt-freq conformers_unique/conf_ad
 ----------------------------------
 Symbolic Z-matrix:
 Charge =  0 Multiplicity = 1

 SCF Done:  E(RB3LYP) =  -959.083007270     A.U. after   14 cycles
 SCF Done:  E(RB3LYP) =  -959.084615394     A.U. after   12 cycles
 SCF Done:  E(RB3LYP) =  -959.084686101     A.U. after   11 cycles
 SCF Done:  E(RB3LYP) =  -959.084593783     A.U. after   11 cycles
 SCF Done:  E(RB3LYP) =  -959.084737196     A.U. after   11 cycles
 SCF Done:  E(RB3LYP) =  -959.084775238     A.U. after   11 cycles
 SCF Done:  E(RB3LYP) =  -959.085129801     A.U. after   13 cycles
 SCF Done:  E(RB3LYP) =  -959.031292869     A.U. after   13 cycles
 SCF Done:  E(RB3LYP) =  -959.085492278     A.U. after   13 cycles
 SCF Done:  E(RB3LYP) =  -959.085645537     A.U. after   11 cycles
 SCF Done:  E(RB3LYP) =  -959.086168659     A.U. after   13 cycles
 SCF Done:  E(RB3LYP) =  -959.086174084     A.U. after   12 cycles
 SCF Done:  E(RB3LYP) =  -959.086177267     A.U. after   11 cycles
 SCF Done:  E(RB3LYP) =  -959.086178330     A.U. after    9 cycles
 SCF Done:  E(RB3LYP) =  -959.086179035     A.U. after    9 cycles
 SCF Done:  E(RB3LYP) =  -959.086179138     A.U. after    9 cycles
 SCF Done:  E(RB3LYP) =  -959.086179144     A.U. after    7 cycles
 Optimization completed.
    -- Stationary point found.
 Normal termination of Gaussian 16 at Tue Sep 17 09:48:37 2024.

 ----------------------------------------------------------------------
 #P Geom=AllCheck Guess=TCheck SCRF=Check GenChk RB3LYP/6-31G(d,p) Freq
 ----------------------------------------------------------------------

 Structure from the checkpoint file:  "smiles_00075_conf_3.chk"
 ----------------------------------
 opt-freq conformers_unique/conf_ad
 ----------------------------------
 Charge =  0 Multiplicity = 1

 SCF Done:  E(RB3LYP) =  -959.086179144     A.U. after    1 cycles

                      1                      2                      3
                      A                      A                      A
 Frequencies --     18.4977                31.4208                69.4328
 Red. masses --      5.2592                 4.1673                 6.4147
 Frc consts  --      0.0011                 0.0024                 0.0182
 IR Inten    --      1.9532                 0.4190                 0.9431

                      4                      5                      6
                      A                      A                      A
 Frequencies --    117.2888               132.4026               192.2329
 Red. masses --      1.6371                 2.0764                 4.8491
 Frc consts  --      0.0133                 0.0214                 0.1056
 IR Inten    --      0.4673                 0.0747                 4.2413

                      7                      8                      9
                      A                      A                      A
 Frequencies --    228.2733               284.1826               313.7465
 Red. masses --      6.6298                 3.6929                 5.2185
 Frc consts  --      0.2035                 0.1757                 0.3027
 IR Inten    --      1.8274                 7.9904                 4.3767

                     10                     11                     12
                      A                      A                      A
 Frequencies --    357.8090               394.6030               420.3020
 Red. masses --      4.3623                 8.1756                 3.0611
 Frc consts  --      0.3291                 0.7501                 0.3186
 IR Inten    --      1.9682                15.0344                 0.0611

                     13                     14                     15
                      A                      A                      A
 Frequencies --    425.1880               506.6334               602.0384
 Red. masses --      2.5203                 3.0961                 5.7116
 Frc consts  --      0.2685                 0.4682                 1.2197
 IR Inten    --      3.8520                10.5005                10.4320

                     16                     17                     18
                      A                      A                      A
 Frequencies --    647.6877               676.5585               709.1793
 Red. masses --      6.7450                 4.6722                 4.3955
 Frc consts  --      1.6671                 1.2600                 1.3025
 IR Inten    --      0.9900                 8.2736                 2.2412

                     19                     20                     21
                      A                      A                      A
 Frequencies --    778.7597               822.7052               842.6919
 Red. masses --      4.5660                 1.7982                 1.2783
 Frc consts  --      1.6315                 0.7171                 0.5348
 IR Inten    --     28.6961                24.6376                 1.8590

                     22                     23                     24
                      A                      A                      A
 Frequencies --    856.4184               892.6830               957.5594
 Red. masses --      3.4502                 3.2913                 1.5203
 Frc consts  --      1.4910                 1.5453                 0.8213
 IR Inten    --     10.9588                 8.2689                 0.3340

                     25                     26                     27
                      A                      A                      A
 Frequencies --    964.5225               976.9740              1035.0954
 Red. masses --      1.8743                 1.3362                 3.8661
 Frc consts  --      1.0274                 0.7514                 2.4405
 IR Inten    --      1.2695                 0.3477                30.4182

                     28                     29                     30
                      A                      A                      A
 Frequencies --   1048.1785              1113.0048              1135.1768
 Red. masses --      4.9091                 2.9437                 1.3913
 Frc consts  --      3.1778                 2.1485                 1.0563
 IR Inten    --     32.9340                57.7174                12.0461

                     31                     32                     33
                      A                      A                      A
 Frequencies --   1166.9705              1179.7017              1210.6283
 Red. masses --      1.3911                 1.2817                 1.1429
 Frc consts  --      1.1161                 1.0509                 0.9869
 IR Inten    --    106.8380                 1.4561                 1.5784

                     34                     35                     36
                      A                      A                      A
 Frequencies --   1212.1951              1221.9712              1292.9675
 Red. masses --      1.4686                 2.7066                 2.0236
 Frc consts  --      1.2715                 2.3812                 1.9932
 IR Inten    --      3.6626                 3.9563               169.6853

                     37                     38                     39
                      A                      A                      A
 Frequencies --   1325.8432              1332.2486              1368.1020
 Red. masses --      2.0546                 2.0547                 2.4981
 Frc consts  --      2.1279                 2.1487                 2.7549
 IR Inten    --    109.7170                12.3598                68.9082

                     40                     41                     42
                      A                      A                      A
 Frequencies --   1452.3959              1480.6573              1489.0754
 Red. masses --      2.6100                 1.2037                 1.1298
 Frc consts  --      3.2438                 1.5548                 1.4760
 IR Inten    --     10.9972                10.7232                15.3617

                     43                     44                     45
                      A                      A                      A
 Frequencies --   1496.0804              1509.2990              1536.0240
 Red. masses --      1.0465                 1.0506                 2.3501
 Frc consts  --      1.3801                 1.4100                 3.2669
 IR Inten    --      6.5953                 7.9994                66.9931

                     46                     47                     48
                      A                      A                      A
 Frequencies --   1632.3974              1655.3100              1821.5553
 Red. masses --      6.8820                 5.7614                10.9223
 Frc consts  --     10.8049                 9.3012                21.3526
 IR Inten    --      0.6909                 5.2511               187.1895

                     49                     50                     51
                      A                      A                      A
 Frequencies --   3067.5378              3075.9570              3139.9132
 Red. masses --      1.0297                 1.0611                 1.1039
 Frc consts  --      5.7089                 5.9154                 6.4126
 IR Inten    --     29.8364                10.4450                 5.8114

                     52                     53                     54
                      A                      A                      A
 Frequencies --   3146.0279              3179.2003              3189.4793
 Red. masses --      1.1071                 1.1072                 1.0895
 Frc consts  --      6.4557                 6.5937                 6.5300
 IR Inten    --     19.8187                14.9028                 9.5064

                     55                     56                     57
                      A                      A                      A
 Frequencies --   3204.0729              3221.3703              3223.0723
 Red. masses --      1.0891                 1.0938                 1.0950
 Frc consts  --      6.5874                 6.6877                 6.7019
 IR Inten    --      0.9160                 4.4844                 0.9090

 - Thermochemistry -
 -------------------
 Temperature   298.150 Kelvin.  Pressure   1.00000 Atm.
 Atom     1 has atomic number  6 and mass  12.00000

 Molecular mass:   184.02911 amu.
 Principal axes and moments of inertia in atomic units:
                           1         2         3
     Eigenvalues --   864.032325350.184795466.33401
           X            0.99991  -0.00082   0.01340
           Y            0.00047   0.99966   0.02593
           Z           -0.01342  -0.02592   0.99957
 This molecule is an asymmetric top.
 Rotational symmetry number  1.
 Warning -- assumption of classical behavior for rotation
           may cause significant error
 Rotational temperatures (Kelvin)      0.10024     0.01619     0.01584
 Rotational constants (GHZ):           2.08874     0.33732     0.33016
 Zero-point vibrational energy     426955.0 (Joules/Mol)
                                  102.04469 (Kcal/Mol)
 Warning -- explicit consideration of  15 degrees of freedom as
           vibrations may cause significant error
 Vibrational temperatures:     26.61    45.21    99.90   168.75   190.50
          (Kelvin)            276.58   328.43   408.88   451.41   514.81
                              567.75   604.72   611.75   728.93   866.20
                              931.88   973.42  1020.35  1120.46  1183.69
                             1212.45  1232.20  1284.37  1377.71  1387.73
                             1405.65  1489.27  1508.10  1601.37  1633.27
                             1679.01  1697.33  1741.82  1744.08  1758.14
                             1860.29  1907.59  1916.81  1968.39  2089.67
                             2130.34  2142.45  2152.53  2171.54  2210.00
                             2348.66  2381.62  2620.81  4413.50  4425.62
                             4517.63  4526.43  4574.16  4588.95  4609.95
                             4634.83  4637.28

 Zero-point correction=                           0.162619 (Hartree/Particle)
 Thermal correction to Energy=                    0.174061
 Thermal correction to Enthalpy=                  0.175005
 Thermal correction to Gibbs Free Energy=         0.122408
 Sum of electronic and zero-point Energies=           -958.923561
 Sum of electronic and thermal Energies=              -958.912119
 Sum of electronic and thermal Enthalpies=            -958.911174
 Sum of electronic and thermal Free Energies=         -958.963771

                     E (Thermal)             CV                S
                      KCal/Mol        Cal/Mol-Kelvin    Cal/Mol-Kelvin
 Total                  109.225             41.055            110.700
 Electronic               0.000              0.000              0.000
 Translational            0.889              2.981             41.536
 Rotational               0.889              2.981             31.603
 Vibrational            107.447             35.093             37.561
 Vibration     1          0.593              1.986              6.789
 Vibration     2          0.594              1.983              5.738
 Vibration     3          0.598              1.969              4.169
 Vibration     4          0.608              1.935              3.145
 Vibration     5          0.613              1.921              2.911
 Vibration     6          0.634              1.851              2.206
 Vibration     7          0.651              1.798              1.892
 Vibration     8          0.683              1.703              1.508
 Vibration     9          0.702              1.647              1.342
 Vibration    10          0.733              1.559              1.132
 Vibration    11          0.762              1.482              0.983
 Vibration    12          0.783              1.426              0.891
 Vibration    13          0.787              1.415              0.875
 Vibration    14          0.862              1.235              0.642
 Vibration    15          0.960              1.027              0.446

 Optimization completed.
    -- Stationary point found.
 Normal termination of Gaussian 16 at Tue Sep 17 09:49:59 2024.

 ----------------------------------------------------------------------
 #p M062X/def2tzvp geom=check guess=read scf(xqc,tight) integral(grid=u
 ltrafine) scrf(SMD, solvent=1,4-Dioxane) polar prop=efg volume
 ----------------------------------------------------------------------

 ---
 spe
 ---
 Structure from the checkpoint file:  "smiles_00075_conf_3.chk"
 Charge =  0 Multiplicity = 1

 SCF Done:  E(RM062X) =  -959.029915870     A.U. after   12 cycles

  Exact polarizability:     179.697      -2.328     135.063     -14.368      -1.617      99.598
 Approx polarizability:     174.003      -1.420     164.746     -18.380      -2.815     113.955

 Normal termination of Gaussian 16 at Tue Sep 17 10:30:56 2024.
 Gaussian 16:  ES64L-G16RevC.02  7-Dec-2021

 ----------------------------------------------------------------------
 #p M062X/def2tzvp geom=check guess=read scf(xqc,tight) integral(grid=u
 ltrafine) scrf(SMD, solvent=1,4-Dioxane) nmr=giao
 ----------------------------------------------------------------------

 ---
 spe
 ---
 Structure from the checkpoint file:  "smiles_00075_conf_3.chk"
 Charge =  0 Multiplicity = 1

                         Standard orientation:
 ---------------------------------------------------------------------
 Center     Atomic      Atomic             Coordinates (Angstroms)
 Number     Number       Type             X           Y           Z
 ---------------------------------------------------------------------
      1          6           0       -4.005083    0.116106   -1.536444
      2          8           0       -3.137912    0.681202   -0.537538
      3          6           0       -2.602191   -0.208299    0.321834
      4          8           0       -2.832653   -1.398294    0.293172
      5          6           0       -1.641037    0.462194    1.285865
      6          6           0       -0.210720    0.298998    0.804990
      7          6           0        0.572708    1.413649    0.497046
      8          6           0        1.887137    1.267750    0.053955
      9          6           0        2.413980   -0.013083   -0.085370
     10         17           0        4.069775   -0.210779   -0.642298
     11          6           0        1.650608   -1.142302    0.208152
     12          6           0        0.341135   -0.978882    0.651552
     13          1           0       -4.850563   -0.391451   -1.066661
     14          1           0       -3.459298   -0.602931   -2.151583
     15          1           0       -4.346781    0.956992   -2.138576
     16          1           0       -1.891127    1.519958    1.383210
     17          1           0       -1.771277   -0.022639    2.257958
     18          1           0        0.155722    2.410641    0.604145
     19          1           0        2.493630    2.134436   -0.181805
     20          1           0        2.077222   -2.131597    0.090033
     21          1           0       -0.268418   -1.850220    0.867803
 ---------------------------------------------------------------------

 SCF Done:  E(RM062X) =  -959.029915870     A.U. after    1 cycles

      1  C    Isotropic =   130.3890   Anisotropy =    74.1866

      2  O    Isotropic =   120.6732   Anisotropy =   180.6704

      3  C    Isotropic =    -9.8037   Anisotropy =   122.0392

      4  O    Isotropic =  -151.2058   Anisotropy =   676.3809

      5  C    Isotropic =   139.9781   Anisotropy =    21.9145

      6  C    Isotropic =    27.6458   Anisotropy =   219.1376

      7  C    Isotropic =    32.5015   Anisotropy =   189.2055

      8  C    Isotropic =    35.0297   Anisotropy =   184.9738

      9  C    Isotropic =    22.6085   Anisotropy =   144.1001

     10  Cl   Isotropic =   685.4480   Anisotropy =   507.8840

     11  C    Isotropic =    34.2886   Anisotropy =   186.4330

     12  C    Isotropic =    32.4573   Anisotropy =   211.4171

     13  H    Isotropic =    28.1179   Anisotropy =     8.5102

     14  H    Isotropic =    28.4110   Anisotropy =     7.7294

     15  H    Isotropic =    28.3458   Anisotropy =     7.8081

     16  H    Isotropic =    28.3232   Anisotropy =     4.0757

     17  H    Isotropic =    28.1517   Anisotropy =     5.4482

     18  H    Isotropic =    23.8136   Anisotropy =     7.8024

     19  H    Isotropic =    23.7711   Anisotropy =     8.5922

     20  H    Isotropic =    23.6856   Anisotropy =     8.9010

     21  H    Isotropic =    23.2061   Anisotropy =     9.3314

 The electronic state is 1-A.
 Alpha  occ. eigenvalues -- -102.64594 -19.67719 -19.62131 -10.67836 -10.60785
 Alpha  occ. eigenvalues --  -10.58846 -10.56629 -10.55894 -10.55672 -10.55621
 Alpha  occ. eigenvalues --  -10.55479 -10.55209  -9.80842  -7.53037  -7.52530
 Alpha  occ. eigenvalues --   -7.52518  -1.23597  -1.14346  -0.99637  -0.94633
 Alpha  occ. eigenvalues --   -0.88498  -0.85656  -0.82721  -0.77872  -0.70833
 Alpha  occ. eigenvalues --   -0.67688  -0.65236  -0.59700  -0.58521  -0.57179
 Alpha  occ. eigenvalues --   -0.56033  -0.54570  -0.53436  -0.50115  -0.49861
 Alpha  occ. eigenvalues --   -0.48614  -0.47671  -0.46270  -0.45434  -0.43616
 Alpha  occ. eigenvalues --   -0.42062  -0.41564  -0.39839  -0.38182  -0.37806
 Alpha  occ. eigenvalues --   -0.36052  -0.32119  -0.29758
 Alpha virt. eigenvalues --    0.00439   0.00798   0.04841   0.06487   0.07829
 Alpha virt. eigenvalues --    0.09869   0.10642   0.11664   0.12400   0.13400
 Alpha virt. eigenvalues --    0.14268   0.14530   0.15627   0.16292   0.16714

 Mulliken charges:
               1
     1  C   -0.267599
     2  O   -0.271660
     3  C    0.397751
     4  O   -0.366911
     5  C   -0.365892
     6  C    0.082347
     7  C   -0.188388
     8  C   -0.176437
     9  C    0.074499
    10  Cl  -0.103496
    11  C   -0.175612
    12  C   -0.187619
    13  H    0.160165
    14  H    0.161177
    15  H    0.156524
    16  H    0.172094
    17  H    0.192595
    18  H    0.167927
    19  H    0.173925
    20  H    0.175491
    21  H    0.189120
 Sum of Mulliken charges =  -0.00000

 Dipole moment (field-independent basis, Debye):
    X=             -2.1172    Y=              2.0651    Z=              0.0386  Tot=              2.9578
 Quadrupole moment (field-independent basis, Debye-Ang):
   XX=            -78.7257   YY=            -74.9750   ZZ=            -74.5702
   XY=             -4.6536   XZ=              4.0933   YZ=              1.0817

 Normal termination of Gaussian 16 at Tue Sep 17 10:45:52 2024.
