 Gaussian 16, Revision C.02,

 ----------------------------------------------------------------------
 #p B3LYP/6-31G(d,p) EmpiricalDispersion=GD3BJ opt freq scf(xqc,tight)
 integral(grid=ultrafine)
 ----------------------------------------------------------------------

 ----------------------------------
 opt-freq conformers_unique/conf_ad
 ----------------------------------
 Symbolic Z-matrix:
 Charge =  0 Multiplicity = 1

 SCF Done:  E(RB3LYP) =  -3110.64406576     A.U. after   15 cycles
 SCF Done:  E(RB3LYP) =  -3110.64552203     A.U. after   13 cycles
 SCF Done:  E(RB3LYP) =  -3110.64529063     A.U. after   12 cycles
 SCF Done:  E(RB3LYP) =  -3110.64583784     A.U. after   12 cycles
 SCF Done:  E(RB3LYP) =  -3110.64594884     A.U. after   12 cycles
 SCF Done:  E(RB3LYP) =  -3110.64601420     A.U. after   10 cycles
 SCF Done:  E(RB3LYP) =  -3110.64603460     A.U. after   10 cycles
 SCF Done:  E(RB3LYP) =  -3110.64604310     A.U. after   10 cycles
 SCF Done:  E(RB3LYP) =  -3110.64605021     A.U. after   10 cycles
 SCF Done:  E(RB3LYP) =  -3110.64605235     A.U. after    9 cycles
 SCF Done:  E(RB3LYP) =  -3110.64605316     A.U. after    8 cycles
 SCF Done:  E(RB3LYP) =  -3110.64605370     A.U. after    8 cycles
 SCF Done:  E(RB3LYP) =  -3110.64605448     A.U. after    8 cycles
 SCF Done:  E(RB3LYP) =  -3110.64605472     A.U. after    8 cycles
 Optimization completed.
    -- Stationary point found.
 Normal termination of Gaussian 16 at Tue Sep 17 09:54:10 2024.

 ----------------------------------------------------------------------
 #P Geom=AllCheck Guess=TCheck SCRF=Check GenChk RB3LYP/6-31G(d,p) Freq
 ----------------------------------------------------------------------

 Structure from the checkpoint file:  "smiles_00081_conf_3.chk"
 ----------------------------------
 opt-freq conformers_unique/conf_ad
 ----------------------------------
 Charge =  0 Multiplicity = 1

 SCF Done:  E(RB3LYP) =  -3110.64605472     A.U. after    1 cycles

                      1                      2                      3
                      A                      A                      A
 Frequencies --     45.3967                52.3804                77.0559
 Red. masses --      9.5382                 4.5488                 3.4133
 Frc consts  --      0.0116                 0.0074                 0.0119
 IR Inten    --      0.9767                 2.3981                 1.0161

                      4                      5                      6
                      A                      A                      A
 Frequencies --    142.3148               168.7440               207.5951
 Red. masses --      1.3247                 4.7000                 7.7950
 Frc consts  --      0.0158                 0.0789                 0.1979
 IR Inten    --      0.2478                 0.7885                 0.0764

                      7                      8                      9
                      A                      A                      A
 Frequencies --    233.0411               258.2361               297.2381
 Red. masses --      5.4230                12.6748                 7.3481
 Frc consts  --      0.1735                 0.4980                 0.3825
 IR Inten    --      1.4252                 1.0617                 2.0480

                     10                     11                     12
                      A                      A                      A
 Frequencies --    350.5733               421.4678               459.7271
 Red. masses --      5.1663                 6.6592                 3.1525
 Frc consts  --      0.3741                 0.6970                 0.3926
 IR Inten    --      1.1256                 6.8694                 2.2436

                     13                     14                     15
                      A                      A                      A
 Frequencies --    480.3059               514.6963               527.6139
 Red. masses --      1.2900                 3.7402                 5.2411
 Frc consts  --      0.1753                 0.5838                 0.8596
 IR Inten    --     79.5835                13.4704                11.0506

                     16                     17                     18
                      A                      A                      A
 Frequencies --    584.9672               598.8049               614.4927
 Red. masses --      5.5445                 4.6253                 2.4044
 Frc consts  --      1.1178                 0.9771                 0.5349
 IR Inten    --      0.7069                 5.8069                53.8724

                     19                     20                     21
                      A                      A                      A
 Frequencies --    677.3667               720.4222               793.1969
 Red. masses --      6.0161                 4.6116                 3.2881
 Frc consts  --      1.6263                 1.4102                 1.2189
 IR Inten    --      1.6884                 4.8608                 2.4974

                     22                     23                     24
                      A                      A                      A
 Frequencies --    843.0452               871.0753               884.6390
 Red. masses --      1.5824                 5.2576                 1.4065
 Frc consts  --      0.6626                 2.3504                 0.6485
 IR Inten    --     13.5362                54.7259                17.8380

                     25                     26                     27
                      A                      A                      A
 Frequencies --    935.7147               966.6335              1030.9759
 Red. masses --      4.6342                 1.3384                 1.5977
 Frc consts  --      2.3906                 0.7368                 1.0005
 IR Inten    --     21.8694                 0.1891                26.7630

                     28                     29                     30
                      A                      A                      A
 Frequencies --   1062.0379              1092.8237              1154.7161
 Red. masses --      1.7197                 1.8726                 1.4755
 Frc consts  --      1.1428                 1.3176                 1.1592
 IR Inten    --      7.6049                14.5953                12.9715

                     31                     32                     33
                      A                      A                      A
 Frequencies --   1251.1925              1269.2177              1272.9917
 Red. masses --      3.4211                 1.5659                 2.2438
 Frc consts  --      3.1554                 1.4862                 2.1423
 IR Inten    --     39.5510                 3.7588                18.2166

                     34                     35                     36
                      A                      A                      A
 Frequencies --   1330.2200              1347.6751              1412.9031
 Red. masses --      2.8399                 4.9729                 1.4324
 Frc consts  --      2.9607                 5.3215                 1.6847
 IR Inten    --    167.2657               115.0315                96.3212

                     37                     38                     39
                      A                      A                      A
 Frequencies --   1433.8361              1475.9357              1491.3287
 Red. masses --      2.4382                 2.7978                 1.0537
 Frc consts  --      2.9534                 3.5909                 1.3807
 IR Inten    --     52.6271                33.5443                16.4812

                     40                     41                     42
                      A                      A                      A
 Frequencies --   1497.5699              1541.9779              1629.7771
 Red. masses --      1.0746                 3.3784                 7.8816
 Frc consts  --      1.4200                 4.7328                12.3345
 IR Inten    --     10.7893               245.8233                26.6376

                     43                     44                     45
                      A                      A                      A
 Frequencies --   1656.7676              1805.2975              3071.1847
 Red. masses --      7.2451                 8.6097                 1.0370
 Frc consts  --     11.7171                16.5323                 5.7628
 IR Inten    --      1.7044               457.9545                 3.5368

                     46                     47                     48
                      A                      A                      A
 Frequencies --   3143.8076              3180.3500              3202.8912
 Red. masses --      1.1000                 1.1032                 1.0900
 Frc consts  --      6.4053                 6.5744                 6.5882
 IR Inten    --      6.2319                 7.1762                 3.6115

                     49                     50                     51
                      A                      A                      A
 Frequencies --   3231.0782              3239.0006              3605.6239
 Red. masses --      1.0942                 1.0929                 1.0758
 Frc consts  --      6.7304                 6.7554                 8.2399
 IR Inten    --      0.6175                 1.0254                33.2932

 - Thermochemistry -
 -------------------
 Temperature   298.150 Kelvin.  Pressure   1.00000 Atm.
 Atom     1 has atomic number  6 and mass  12.00000

 Molecular mass:   230.96950 amu.
 Principal axes and moments of inertia in atomic units:
                           1         2         3
     Eigenvalues --   827.748276701.210287154.09060
           X            0.99994  -0.00224   0.01061
           Y            0.00271   0.99900  -0.04468
           Z           -0.01050   0.04471   0.99895
 This molecule is an asymmetric top.
 Rotational symmetry number  1.
 Warning -- assumption of classical behavior for rotation
           may cause significant error
 Rotational temperatures (Kelvin)      0.10464     0.01293     0.01211
 Rotational constants (GHZ):           2.18030     0.26932     0.25227
 Zero-point vibrational energy     359824.3 (Joules/Mol)
                                   86.00007 (Kcal/Mol)
 Warning -- explicit consideration of  18 degrees of freedom as
           vibrations may cause significant error
 Vibrational temperatures:     65.32    75.36   110.87   204.76   242.79
          (Kelvin)            298.68   335.29   371.54   427.66   504.40
                              606.40   661.44   691.05   740.53   759.12
                              841.64   861.55   884.12   974.58  1036.53
                             1141.23  1212.95  1253.28  1272.80  1346.28
                             1390.77  1483.34  1528.04  1572.33  1661.38
                             1800.19  1826.12  1831.55  1913.89  1939.00
                             2032.85  2062.97  2123.54  2145.69  2154.67
                             2218.56  2344.89  2383.72  2597.42  4418.75
                             4523.24  4575.81  4608.25  4648.80  4660.20
                             5187.69

 Zero-point correction=                           0.137050 (Hartree/Particle)
 Thermal correction to Energy=                    0.148392
 Thermal correction to Enthalpy=                  0.149336
 Thermal correction to Gibbs Free Energy=         0.097856
 Sum of electronic and zero-point Energies=          -3110.509005
 Sum of electronic and thermal Energies=             -3110.497663
 Sum of electronic and thermal Enthalpies=           -3110.496719
 Sum of electronic and thermal Free Energies=        -3110.548199

                     E (Thermal)             CV                S
                      KCal/Mol        Cal/Mol-Kelvin    Cal/Mol-Kelvin
 Total                   93.117             41.247            108.350
 Electronic               0.000              0.000              0.000
 Translational            0.889              2.981             42.213
 Rotational               0.889              2.981             32.051
 Vibrational             91.340             35.285             34.086
 Vibration     1          0.595              1.979              5.008
 Vibration     2          0.596              1.977              4.725
 Vibration     3          0.599              1.964              3.964
 Vibration     4          0.616              1.911              2.773
 Vibration     5          0.625              1.881              2.449
 Vibration     6          0.641              1.829              2.065
 Vibration     7          0.654              1.790              1.855
 Vibration     8          0.667              1.749              1.674
 Vibration     9          0.691              1.679              1.432
 Vibration    10          0.727              1.574              1.164
 Vibration    11          0.784              1.424              0.887
 Vibration    12          0.818              1.339              0.767
 Vibration    13          0.837              1.294              0.709
 Vibration    14          0.870              1.217              0.622
 Vibration    15          0.883              1.189              0.593
 Vibration    16          0.942              1.064              0.476
 Vibration    17          0.957              1.034              0.452
 Vibration    18          0.974              1.001              0.425

 Optimization completed.
    -- Stationary point found.
 Normal termination of Gaussian 16 at Tue Sep 17 09:55:20 2024.

 ----------------------------------------------------------------------
 #p M062X/def2tzvp geom=check guess=read scf(xqc,tight) integral(grid=u
 ltrafine) scrf(SMD, solvent=1,4-Dioxane) polar prop=efg volume
 ----------------------------------------------------------------------

 ---
 spe
 ---
 Structure from the checkpoint file:  "smiles_00081_conf_3.chk"
 Charge =  0 Multiplicity = 1

 SCF Done:  E(RM062X) =  -3113.09806168     A.U. after   12 cycles

  Exact polarizability:     210.131       3.729     128.454      -4.410      -1.069      88.016
 Approx polarizability:     206.085       4.127     154.107      -8.404       2.341     105.320

 Normal termination of Gaussian 16 at Tue Sep 17 10:32:00 2024.
 Gaussian 16:  ES64L-G16RevC.02  7-Dec-2021

 ----------------------------------------------------------------------
 #p M062X/def2tzvp geom=check guess=read scf(xqc,tight) integral(grid=u
 ltrafine) scrf(SMD, solvent=1,4-Dioxane) nmr=giao
 ----------------------------------------------------------------------

 ---
 spe
 ---
 Structure from the checkpoint file:  "smiles_00081_conf_3.chk"
 Charge =  0 Multiplicity = 1

                         Standard orientation:
 ---------------------------------------------------------------------
 Center     Atomic      Atomic             Coordinates (Angstroms)
 Number     Number       Type             X           Y           Z
 ---------------------------------------------------------------------
      1          6           0        3.338806   -0.767438    1.336671
      2          6           0        3.694582    0.167592    0.200586
      3          8           0        4.843155    0.454277   -0.093700
      4          7           0        2.643121    0.726572   -0.511935
      5          6           0        1.257854    0.536006   -0.335305
      6          6           0        0.406594    1.620241   -0.089543
      7          6           0       -0.968976    1.450503    0.043631
      8          6           0       -1.504485    0.167609   -0.052383
      9         35           0       -3.381739   -0.086240    0.152103
     10          6           0       -0.693035   -0.936948   -0.297573
     11          6           0        0.669896   -0.729502   -0.454594
     12          9           0        1.450170   -1.791771   -0.732959
     13          1           0        4.210691   -0.851474    1.984119
     14          1           0        2.479273   -0.408195    1.909136
     15          1           0        3.088916   -1.755545    0.943211
     16          1           0        2.946145    1.419012   -1.185018
     17          1           0        0.843599    2.609191    0.004023
     18          1           0       -1.614888    2.298829    0.232664
     19          1           0       -1.098894   -1.936070   -0.390895
 ---------------------------------------------------------------------

 SCF Done:  E(RM062X) =  -3113.09806168     A.U. after    1 cycles

      1  C    Isotropic =   163.8867   Anisotropy =    44.5573

      2  C    Isotropic =    -6.2482   Anisotropy =   144.4994

      3  O    Isotropic =  -161.1821   Anisotropy =   678.1078

      4  N    Isotropic =   112.9760   Anisotropy =   154.1719

      5  C    Isotropic =    38.5678   Anisotropy =   157.1268

      6  C    Isotropic =    34.9485   Anisotropy =   186.4561

      7  C    Isotropic =    35.2647   Anisotropy =   179.9141

      8  C    Isotropic =    26.1518   Anisotropy =   148.0366

      9  Br   Isotropic =  2056.7627   Anisotropy =  1311.7588

     10  C    Isotropic =    44.4113   Anisotropy =   152.8391

     11  C    Isotropic =     5.3458   Anisotropy =   122.8419

     12  F    Isotropic =   291.8617   Anisotropy =   142.7927

     13  H    Isotropic =    30.0576   Anisotropy =     8.5542

     14  H    Isotropic =    30.1142   Anisotropy =     4.2222

     15  H    Isotropic =    29.5136   Anisotropy =     5.2835

     16  H    Isotropic =    25.2588   Anisotropy =     7.5211

     17  H    Isotropic =    23.9945   Anisotropy =     7.2642

     18  H    Isotropic =    23.8402   Anisotropy =     9.6514

     19  H    Isotropic =    23.8399   Anisotropy =    10.2399

 The electronic state is 1-A.
 Alpha  occ. eigenvalues -- -485.38637 -63.37114 -57.19062 -57.18821 -57.18814
 Alpha  occ. eigenvalues --  -25.27814 -19.60004 -14.78558 -10.65530 -10.65259
 Alpha  occ. eigenvalues --  -10.62095 -10.61190 -10.57420 -10.57292 -10.56989
 Alpha  occ. eigenvalues --  -10.53853  -9.03759  -6.86179  -6.85285  -6.85261
 Alpha  occ. eigenvalues --   -2.89555  -2.89233  -2.89205  -2.88373  -2.88373
 Alpha  occ. eigenvalues --   -1.39281  -1.16790  -1.05643  -0.99090  -0.90885
 Alpha  occ. eigenvalues --   -0.87510  -0.84199  -0.82703  -0.73717  -0.72217
 Alpha  occ. eigenvalues --   -0.67670  -0.63699  -0.61542  -0.60382  -0.59352
 Alpha  occ. eigenvalues --   -0.55635  -0.54366  -0.52877  -0.52266  -0.51323
 Alpha  occ. eigenvalues --   -0.48765  -0.47241  -0.46561  -0.46221  -0.43976
 Alpha  occ. eigenvalues --   -0.43199  -0.39798  -0.36266  -0.35088  -0.34117
 Alpha  occ. eigenvalues --   -0.33135  -0.29657
 Alpha virt. eigenvalues --   -0.01293   0.00184   0.02451   0.05955   0.06911
 Alpha virt. eigenvalues --    0.09284   0.09976   0.11431   0.12750   0.13401
 Alpha virt. eigenvalues --    0.14560   0.15347   0.16124   0.16902   0.17177

 Mulliken charges:
               1
     1  C   -0.519116
     2  C    0.342765
     3  O   -0.388468
     4  N   -0.373993
     5  C    0.090782
     6  C   -0.177214
     7  C   -0.168507
     8  C    0.046748
     9  Br  -0.093312
    10  C   -0.200263
    11  C    0.255791
    12  F   -0.203509
    13  H    0.171034
    14  H    0.183712
    15  H    0.193612
    16  H    0.270477
    17  H    0.188405
    18  H    0.186504
    19  H    0.194553
 Sum of Mulliken charges =  -0.00000

 Dipole moment (field-independent basis, Debye):
    X=             -3.0748    Y=              1.1180    Z=              0.6361  Tot=              3.3330
 Quadrupole moment (field-independent basis, Debye-Ang):
   XX=           -110.6938   YY=            -74.3628   ZZ=            -81.0049
   XY=             -0.9828   XZ=              2.9056   YZ=             -2.1856

 Normal termination of Gaussian 16 at Tue Sep 17 10:48:36 2024.
