 Gaussian 16, Revision C.02,

 ----------------------------------------------------------------------
 #p B3LYP/6-31G(d,p) EmpiricalDispersion=GD3BJ opt freq scf(xqc,tight)
 integral(grid=ultrafine)
 ----------------------------------------------------------------------

 ----------------------------------
 opt-freq conformers_unique/conf_ai
 ----------------------------------
 Symbolic Z-matrix:
 Charge =  0 Multiplicity = 1

 SCF Done:  E(RB3LYP) =  -2996.56426590     A.U. after   15 cycles
 SCF Done:  E(RB3LYP) =  -2996.56549938     A.U. after   11 cycles
 SCF Done:  E(RB3LYP) =  -2996.56523034     A.U. after   12 cycles
 SCF Done:  E(RB3LYP) =  -2996.56592715     A.U. after   11 cycles
 SCF Done:  E(RB3LYP) =  -2996.56618880     A.U. after   12 cycles
 SCF Done:  E(RB3LYP) =  -2996.56633244     A.U. after   12 cycles
 SCF Done:  E(RB3LYP) =  -2996.56637332     A.U. after   11 cycles
 SCF Done:  E(RB3LYP) =  -2996.56638557     A.U. after    9 cycles
 SCF Done:  E(RB3LYP) =  -2996.56638868     A.U. after    9 cycles
 SCF Done:  E(RB3LYP) =  -2996.56638985     A.U. after    8 cycles
 SCF Done:  E(RB3LYP) =  -2996.56883602     A.U. after   11 cycles
 SCF Done:  E(RB3LYP) =  -2996.56872726     A.U. after   12 cycles
 SCF Done:  E(RB3LYP) =  -2996.56892919     A.U. after   12 cycles
 SCF Done:  E(RB3LYP) =  -2996.56894707     A.U. after    9 cycles
 SCF Done:  E(RB3LYP) =  -2996.56895217     A.U. after    9 cycles
 SCF Done:  E(RB3LYP) =  -2996.56895317     A.U. after    7 cycles
 SCF Done:  E(RB3LYP) =  -2996.56895359     A.U. after    7 cycles
 Optimization completed.
    -- Stationary point found.
 Normal termination of Gaussian 16 at Tue Sep 17 09:59:17 2024.

 ----------------------------------------------------------------------
 #P Geom=AllCheck Guess=TCheck SCRF=Check GenChk RB3LYP/6-31G(d,p) Freq
 ----------------------------------------------------------------------

 Structure from the checkpoint file:  "smiles_00017_conf_8.chk"
 ----------------------------------
 opt-freq conformers_unique/conf_ai
 ----------------------------------
 Charge =  0 Multiplicity = 1

 SCF Done:  E(RB3LYP) =  -2996.56895359     A.U. after    1 cycles

                      1                      2                      3
                      A                      A                      A
 Frequencies --     56.0651                68.1819               103.4318
 Red. masses --      2.8999                 3.8211                 3.8467
 Frc consts  --      0.0054                 0.0105                 0.0242
 IR Inten    --      0.0960                 1.1149                 0.4247

                      4                      5                      6
                      A                      A                      A
 Frequencies --    155.4123               191.2896               234.5827
 Red. masses --      5.1059                 5.2952                 1.0294
 Frc consts  --      0.0727                 0.1142                 0.0334
 IR Inten    --      0.4473                 1.0439                 0.1253

                      7                      8                      9
                      A                      A                      A
 Frequencies --    262.3241               275.0699               298.7143
 Red. masses --      1.5710                 2.4828                 3.4851
 Frc consts  --      0.0637                 0.1107                 0.1832
 IR Inten    --      0.2432                 1.0054                 1.4363

                     10                     11                     12
                      A                      A                      A
 Frequencies --    345.1013               400.3877               439.4473
 Red. masses --      3.0363                 3.2270                 2.6355
 Frc consts  --      0.2131                 0.3048                 0.2999
 IR Inten    --      0.1505                 0.7565                 0.2932

                     13                     14                     15
                      A                      A                      A
 Frequencies --    468.2903               496.3199               553.5853
 Red. masses --      3.4404                 5.4273                 3.8426
 Frc consts  --      0.4445                 0.7877                 0.6938
 IR Inten    --      3.4794                11.0879                 1.1419

                     16                     17                     18
                      A                      A                      A
 Frequencies --    615.9160               668.9675               746.2545
 Red. masses --      4.5698                 6.5060                 3.6468
 Frc consts  --      1.0214                 1.7154                 1.1966
 IR Inten    --      2.5177                13.5107                 5.7619

                     19                     20                     21
                      A                      A                      A
 Frequencies --    767.7803               812.6770               874.3773
 Red. masses --      1.3853                 2.4679                 3.1944
 Frc consts  --      0.4811                 0.9603                 1.4389
 IR Inten    --     26.9869                17.0794                 8.2810

                     22                     23                     24
                      A                      A                      A
 Frequencies --    889.8492               939.7806               954.5819
 Red. masses --      1.5677                 1.2444                 1.4665
 Frc consts  --      0.7314                 0.6475                 0.7873
 IR Inten    --      0.8906                 1.1360                 9.0799

                     25                     26                     27
                      A                      A                      A
 Frequencies --    956.5710               964.3816               992.9506
 Red. masses --      1.8562                 1.8942                 1.2943
 Frc consts  --      1.0007                 1.0379                 0.7518
 IR Inten    --     23.5564                38.3197                 0.2353

                     28                     29                     30
                      A                      A                      A
 Frequencies --   1047.6045              1067.8288              1142.0484
 Red. masses --      7.2438                 1.9098                 1.8961
 Frc consts  --      4.6839                 1.2831                 1.4570
 IR Inten    --     32.5946                 7.8791                93.2936

                     31                     32                     33
                      A                      A                      A
 Frequencies --   1143.7385              1170.0518              1185.0047
 Red. masses --      1.5202                 2.0090                 1.0968
 Frc consts  --      1.1717                 1.6205                 0.9074
 IR Inten    --      3.1304                18.9091                 0.8085

                     34                     35                     36
                      A                      A                      A
 Frequencies --   1210.8694              1275.2424              1296.7027
 Red. masses --      1.9398                 1.7831                 2.5437
 Frc consts  --      1.6757                 1.7085                 2.5200
 IR Inten    --     13.6485                31.3857               117.1347

                     37                     38                     39
                      A                      A                      A
 Frequencies --   1335.1039              1376.8197              1394.8324
 Red. masses --      8.4548                 1.3216                 1.1921
 Frc consts  --      8.8794                 1.4761                 1.3665
 IR Inten    --      4.0699                 3.8164                15.7344

                     40                     41                     42
                      A                      A                      A
 Frequencies --   1417.2977              1429.7742              1481.3004
 Red. masses --      1.4002                 1.2702                 2.2220
 Frc consts  --      1.6572                 1.5298                 2.8726
 IR Inten    --     20.9306                23.4314                 9.7419

                     43                     44                     45
                      A                      A                      A
 Frequencies --   1495.3091              1502.8175              1507.7239
 Red. masses --      1.0551                 1.0469                 1.0676
 Frc consts  --      1.3900                 1.3930                 1.4299
 IR Inten    --      1.0885                 0.5378                 7.5587

                     46                     47                     48
                      A                      A                      A
 Frequencies --   1515.3913              1525.6829              1624.4560
 Red. masses --      2.4718                 1.0892                 6.0721
 Frc consts  --      3.3444                 1.4938                 9.4408
 IR Inten    --     99.8388                 8.1597                 1.2180

                     49                     50                     51
                      A                      A                      A
 Frequencies --   1642.9875              3046.8844              3053.9157
 Red. masses --      6.2152                 1.0348                 1.0589
 Frc consts  --      9.8849                 5.6603                 5.8185
 IR Inten    --     17.8632                14.3675                 9.1586

                     52                     53                     54
                      A                      A                      A
 Frequencies --   3056.4092              3121.1820              3127.0792
 Red. masses --      1.0607                 1.1025                 1.1031
 Frc consts  --      5.8379                 6.3281                 6.3551
 IR Inten    --     19.5188                 7.4599                21.4313

                     55                     56                     57
                      A                      A                      A
 Frequencies --   3131.3145              3144.6065              3191.4272
 Red. masses --      1.1024                 1.1029                 1.0859
 Frc consts  --      6.3688                 6.4258                 6.5167
 IR Inten    --     43.2201                17.8229                 1.7792

                     58                     59                     60
                      A                      A                      A
 Frequencies --   3204.8561              3215.6170              3221.5627
 Red. masses --      1.0906                 1.0939                 1.0967
 Frc consts  --      6.6000                 6.6646                 6.7059
 IR Inten    --     12.8625                 8.9291                 6.7738

 - Thermochemistry -
 -------------------
 Temperature   298.150 Kelvin.  Pressure   1.00000 Atm.
 Atom     1 has atomic number  6 and mass  12.00000

 Molecular mass:   213.99933 amu.
 Principal axes and moments of inertia in atomic units:
                           1         2         3
     Eigenvalues --  2055.100102303.228594097.77348
           X            0.99500   0.09981  -0.00231
           Y           -0.09983   0.99496  -0.00902
           Z            0.00139   0.00921   0.99996
 This molecule is an asymmetric top.
 Rotational symmetry number  1.
 Warning -- assumption of classical behavior for rotation
           may cause significant error
 Rotational temperatures (Kelvin)      0.04215     0.03761     0.02114
 Rotational constants (GHZ):           0.87818     0.78357     0.44042
 Zero-point vibrational energy     471542.4 (Joules/Mol)
                                  112.70134 (Kcal/Mol)
 Warning -- explicit consideration of  16 degrees of freedom as
           vibrations may cause significant error
 Vibrational temperatures:     80.67    98.10   148.82   223.60   275.22
          (Kelvin)            337.51   377.43   395.76   429.78   496.52
                              576.07   632.27   673.77   714.09   796.49
                              886.17   962.50  1073.69  1104.66  1169.26
                             1258.03  1280.29  1352.13  1373.43  1376.29
                             1387.53  1428.63  1507.27  1536.37  1643.15
                             1645.58  1683.44  1704.96  1742.17  1834.79
                             1865.67  1920.92  1980.94  2006.85  2039.18
                             2057.13  2131.26  2151.42  2162.22  2169.28
                             2180.31  2195.12  2337.23  2363.89  4383.79
                             4393.90  4397.49  4490.68  4499.17  4505.26
                             4524.39  4591.75  4611.07  4626.56  4635.11

 Zero-point correction=                           0.179601 (Hartree/Particle)
 Thermal correction to Energy=                    0.190569
 Thermal correction to Enthalpy=                  0.191514
 Thermal correction to Gibbs Free Energy=         0.141789
 Sum of electronic and zero-point Energies=          -2996.389353
 Sum of electronic and thermal Energies=             -2996.378384
 Sum of electronic and thermal Enthalpies=           -2996.377440
 Sum of electronic and thermal Free Energies=        -2996.427165

                     E (Thermal)             CV                S
                      KCal/Mol        Cal/Mol-Kelvin    Cal/Mol-Kelvin
 Total                  119.584             40.962            104.655
 Electronic               0.000              0.000              0.000
 Translational            0.889              2.981             41.986
 Rotational               0.889              2.981             31.340
 Vibrational            117.807             35.000             31.329
 Vibration     1          0.596              1.975              4.591
 Vibration     2          0.598              1.969              4.205
 Vibration     3          0.605              1.946              3.389
 Vibration     4          0.620              1.897              2.605
 Vibration     5          0.634              1.852              2.215
 Vibration     6          0.654              1.788              1.844
 Vibration     7          0.670              1.742              1.646
 Vibration     8          0.677              1.719              1.564
 Vibration     9          0.692              1.676              1.424
 Vibration    10          0.723              1.585              1.188
 Vibration    11          0.766              1.469              0.961
 Vibration    12          0.799              1.384              0.828
 Vibration    13          0.825              1.320              0.742
 Vibration    14          0.852              1.258              0.667
 Vibration    15          0.909              1.132              0.537
 Vibration    16          0.976              0.998              0.423

                           ! Non-Optimized Parameters !
 Normal termination of Gaussian 16 at Tue Sep 17 10:00:55 2024.

 ----------------------------------------------------------------------
 #p M062X/def2tzvp geom=check guess=read scf(xqc,tight) integral(grid=u
 ltrafine) scrf(SMD, solvent=1,4-Dioxane) polar prop=efg volume
 ----------------------------------------------------------------------

 ---
 spe
 ---
 Structure from the checkpoint file:  "smiles_00017_conf_8.chk"
 Charge =  0 Multiplicity = 1

 SCF Done:  E(RM062X) =  -2998.97466955     A.U. after   11 cycles

  Exact polarizability:     176.394     -12.485     166.831       7.049       5.741      97.514
 Approx polarizability:     178.771     -11.795     182.276      10.425       9.382     120.091

 Normal termination of Gaussian 16 at Tue Sep 17 10:44:31 2024.
 Gaussian 16:  ES64L-G16RevC.02  7-Dec-2021

 ----------------------------------------------------------------------
 #p M062X/def2tzvp geom=check guess=read scf(xqc,tight) integral(grid=u
 ltrafine) scrf(SMD, solvent=1,4-Dioxane) nmr=giao
 ----------------------------------------------------------------------

 ---
 spe
 ---
 Structure from the checkpoint file:  "smiles_00017_conf_8.chk"
 Charge =  0 Multiplicity = 1

                         Standard orientation:
 ---------------------------------------------------------------------
 Center     Atomic      Atomic             Coordinates (Angstroms)
 Number     Number       Type             X           Y           Z
 ---------------------------------------------------------------------
      1          6           0       -2.252918   -2.138634    0.851399
      2          6           0       -1.983335   -0.748017    0.292022
      3          6           0       -3.205351   -0.080754   -0.313160
      4          8           0       -1.005586   -0.836518   -0.783264
      5          6           0        0.305612   -0.851331   -0.404743
      6          6           0        1.029637   -2.045888   -0.465431
      7          6           0        2.383227   -2.076986   -0.135504
      8          6           0        3.031446   -0.909216    0.266805
      9          6           0        2.326813    0.293034    0.326515
     10          6           0        0.976967    0.316634   -0.012636
     11         35           0        0.031298    1.974869    0.028491
     12          1           0       -2.654334   -2.791620    0.070247
     13          1           0       -2.978756   -2.087283    1.669276
     14          1           0       -1.334121   -2.586582    1.240761
     15          1           0       -1.570112   -0.105227    1.077982
     16          1           0       -2.935306    0.909430   -0.687014
     17          1           0       -3.996214    0.023592    0.435539
     18          1           0       -3.590695   -0.676936   -1.146012
     19          1           0        0.504471   -2.939157   -0.785641
     20          1           0        2.929108   -3.013377   -0.190199
     21          1           0        4.084523   -0.926086    0.527644
     22          1           0        2.818110    1.211906    0.624768
 ---------------------------------------------------------------------

 SCF Done:  E(RM062X) =  -2998.97466955     A.U. after    1 cycles

      1  C    Isotropic =   165.1014   Anisotropy =    32.8891

      2  C    Isotropic =   103.3754   Anisotropy =    80.7906

      3  C    Isotropic =   162.1365   Anisotropy =    36.7779

      4  O    Isotropic =   190.2974   Anisotropy =    78.6399

      5  C    Isotropic =     5.1894   Anisotropy =   162.3913

      6  C    Isotropic =    37.5988   Anisotropy =   183.2885

      7  C    Isotropic =    34.6099   Anisotropy =   212.8071

      8  C    Isotropic =    39.0423   Anisotropy =   204.9107

      9  C    Isotropic =    29.2631   Anisotropy =   183.6530

     10  C    Isotropic =    31.4457   Anisotropy =   121.6699

     11  Br   Isotropic =  2168.3050   Anisotropy =  1040.2321

     12  H    Isotropic =    30.7690   Anisotropy =     7.7465

     13  H    Isotropic =    30.9878   Anisotropy =    10.4739

     14  H    Isotropic =    30.3804   Anisotropy =     6.6266

     15  H    Isotropic =    27.6409   Anisotropy =     6.8451

     16  H    Isotropic =    29.7795   Anisotropy =     6.7104

     17  H    Isotropic =    30.7793   Anisotropy =     9.9837

     18  H    Isotropic =    30.5412   Anisotropy =     7.5493

     19  H    Isotropic =    23.9716   Anisotropy =     8.7016

     20  H    Isotropic =    23.7436   Anisotropy =     5.6454

     21  H    Isotropic =    23.9452   Anisotropy =     5.3569

     22  H    Isotropic =    23.5611   Anisotropy =    10.8765

 The electronic state is 1-A.
 Alpha  occ. eigenvalues -- -485.37585 -63.36053 -57.18000 -57.17764 -57.17754
 Alpha  occ. eigenvalues --  -19.64240 -10.61059 -10.60107 -10.59368 -10.55681
 Alpha  occ. eigenvalues --  -10.55120 -10.54943 -10.54901 -10.52356 -10.52092
 Alpha  occ. eigenvalues --   -9.02687  -6.85099  -6.84224  -6.84188  -2.88476
 Alpha  occ. eigenvalues --   -2.88163  -2.88125  -2.87310  -2.87309  -1.17855
 Alpha  occ. eigenvalues --   -0.97486  -0.89971  -0.88915  -0.83933  -0.81227
 Alpha  occ. eigenvalues --   -0.78094  -0.70373  -0.69708  -0.65833  -0.60793
 Alpha  occ. eigenvalues --   -0.56255  -0.55679  -0.52960  -0.51843  -0.50553
 Alpha  occ. eigenvalues --   -0.48395  -0.46739  -0.46109  -0.44978  -0.43666
 Alpha  occ. eigenvalues --   -0.43059  -0.42499  -0.40915  -0.39761  -0.37737
 Alpha  occ. eigenvalues --   -0.35062  -0.34877  -0.30905  -0.29311
 Alpha virt. eigenvalues --    0.00884   0.01692   0.03679   0.07576   0.09744
 Alpha virt. eigenvalues --    0.10337   0.11200   0.12708   0.12886   0.13991
 Alpha virt. eigenvalues --    0.14171   0.15060   0.15280   0.16665   0.17403

 Mulliken charges:
               1
     1  C   -0.448132
     2  C   -0.025441
     3  C   -0.398217
     4  O   -0.309103
     5  C    0.197613
     6  C   -0.178470
     7  C   -0.155572
     8  C   -0.161553
     9  C   -0.170296
    10  C   -0.009763
    11  Br  -0.102436
    12  H    0.153618
    13  H    0.155044
    14  H    0.158478
    15  H    0.153396
    16  H    0.150106
    17  H    0.146577
    18  H    0.152821
    19  H    0.181421
    20  H    0.165808
    21  H    0.165740
    22  H    0.178361
 Sum of Mulliken charges =  -0.00000

 Dipole moment (field-independent basis, Debye):
    X=              0.3896    Y=             -1.6714    Z=              1.4157  Tot=              2.2247
 Quadrupole moment (field-independent basis, Debye-Ang):
   XX=            -68.5659   YY=            -75.0194   ZZ=            -82.5470
   XY=             -1.2148   XZ=             -0.5921   YZ=              0.3795

 Normal termination of Gaussian 16 at Tue Sep 17 11:00:44 2024.
