 Gaussian 16, Revision C.02,

 ----------------------------------------------------------------------
 #p B3LYP/6-31G(d,p) EmpiricalDispersion=GD3BJ opt freq scf(xqc,tight)
 integral(grid=ultrafine)
 ----------------------------------------------------------------------

 ----------------------------------
 opt-freq conformers_unique/conf_ab
 ----------------------------------
 Symbolic Z-matrix:
 Charge =  0 Multiplicity = 1

 SCF Done:  E(RB3LYP) =  -2996.56227354     A.U. after   14 cycles
 SCF Done:  E(RB3LYP) =  -2996.56442709     A.U. after   12 cycles
 SCF Done:  E(RB3LYP) =  -2996.56499821     A.U. after   11 cycles
 SCF Done:  E(RB3LYP) =  -2996.56503073     A.U. after   12 cycles
 SCF Done:  E(RB3LYP) =  -2996.56498806     A.U. after   11 cycles
 SCF Done:  E(RB3LYP) =  -2996.56524905     A.U. after   11 cycles
 SCF Done:  E(RB3LYP) =  -2996.56530215     A.U. after   11 cycles
 SCF Done:  E(RB3LYP) =  -2996.56530724     A.U. after    9 cycles
 SCF Done:  E(RB3LYP) =  -2996.56531026     A.U. after    9 cycles
 SCF Done:  E(RB3LYP) =  -2996.56531089     A.U. after    8 cycles
 SCF Done:  E(RB3LYP) =  -2996.56531094     A.U. after    6 cycles
 Optimization completed.
    -- Stationary point found.
 Normal termination of Gaussian 16 at Tue Sep 17 09:56:05 2024.

 ----------------------------------------------------------------------
 #P Geom=AllCheck Guess=TCheck SCRF=Check GenChk RB3LYP/6-31G(d,p) Freq
 ----------------------------------------------------------------------

 Structure from the checkpoint file:  "smiles_00017_conf_1.chk"
 ----------------------------------
 opt-freq conformers_unique/conf_ab
 ----------------------------------
 Charge =  0 Multiplicity = 1

 SCF Done:  E(RB3LYP) =  -2996.56531094     A.U. after    1 cycles

                      1                      2                      3
                      A                      A                      A
 Frequencies --     40.8462                93.1945                96.9951
 Red. masses --      2.6735                 4.6327                 4.0704
 Frc consts  --      0.0026                 0.0237                 0.0226
 IR Inten    --      0.1210                 1.6652                 0.6585

                      4                      5                      6
                      A                      A                      A
 Frequencies --    161.8933               177.8617               254.7160
 Red. masses --      4.4196                 5.4744                 1.0927
 Frc consts  --      0.0682                 0.1020                 0.0418
 IR Inten    --      0.4257                 1.0035                 0.0390

                      7                      8                      9
                      A                      A                      A
 Frequencies --    279.7812               290.2402               309.9660
 Red. masses --      1.6513                 2.0000                 4.4564
 Frc consts  --      0.0762                 0.0993                 0.2523
 IR Inten    --      0.2507                 1.3393                 0.8810

                     10                     11                     12
                      A                      A                      A
 Frequencies --    359.7411               389.5732               462.0311
 Red. masses --      3.0476                 2.4896                 3.1368
 Frc consts  --      0.2324                 0.2226                 0.3945
 IR Inten    --      0.9892                 1.1927                 3.7850

                     13                     14                     15
                      A                      A                      A
 Frequencies --    480.9468               511.7817               533.2284
 Red. masses --      3.9330                 3.9040                 5.1848
 Frc consts  --      0.5360                 0.6025                 0.8686
 IR Inten    --      6.3400                 3.5006                 5.0487

                     16                     17                     18
                      A                      A                      A
 Frequencies --    621.1362               668.2963               751.7161
 Red. masses --      3.4185                 6.3948                 3.8041
 Frc consts  --      0.7771                 1.6827                 1.2665
 IR Inten    --      2.1062                12.7363                 7.8091

                     19                     20                     21
                      A                      A                      A
 Frequencies --    762.9044               796.8602               860.1378
 Red. masses --      1.5966                 2.3666                 3.1404
 Frc consts  --      0.5475                 0.8854                 1.3689
 IR Inten    --     16.5340                25.3148                 9.5194

                     22                     23                     24
                      A                      A                      A
 Frequencies --    885.3332               935.2957               943.7902
 Red. masses --      1.5455                 1.3068                 1.3310
 Frc consts  --      0.7137                 0.6735                 0.6985
 IR Inten    --      1.9164                 0.6141                 4.3517

                     25                     26                     27
                      A                      A                      A
 Frequencies --    954.2476               968.4120               992.3115
 Red. masses --      1.7196                 2.0054                 1.2944
 Frc consts  --      0.9225                 1.1081                 0.7510
 IR Inten    --     14.9875                42.3400                 0.5407

                     28                     29                     30
                      A                      A                      A
 Frequencies --   1049.5911              1070.3020              1144.0310
 Red. masses --      7.5427                 1.9453                 1.7145
 Frc consts  --      4.8957                 1.3130                 1.3221
 IR Inten    --     41.0681                 6.0960                 7.0152

                     31                     32                     33
                      A                      A                      A
 Frequencies --   1153.7235              1166.6085              1186.5911
 Red. masses --      1.7935                 1.9637                 1.0901
 Frc consts  --      1.4066                 1.5747                 0.9043
 IR Inten    --     17.3442               105.3540                 1.1012

                     34                     35                     36
                      A                      A                      A
 Frequencies --   1205.8173              1263.1090              1287.7004
 Red. masses --      1.9683                 2.4776                 1.6409
 Frc consts  --      1.6862                 2.3290                 1.6031
 IR Inten    --      7.5917               129.0306                35.0668

                     37                     38                     39
                      A                      A                      A
 Frequencies --   1332.2993              1371.6162              1402.1301
 Red. masses --      7.9044                 1.3336                 1.2719
 Frc consts  --      8.2665                 1.4783                 1.4732
 IR Inten    --      1.6668                 4.0335                 1.2545

                     40                     41                     42
                      A                      A                      A
 Frequencies --   1415.6214              1431.7695              1479.9101
 Red. masses --      1.3378                 1.2492                 2.2112
 Frc consts  --      1.5796                 1.5088                 2.8532
 IR Inten    --     16.7512                21.4613                11.4476

                     43                     44                     45
                      A                      A                      A
 Frequencies --   1499.5696              1504.0949              1513.6221
 Red. masses --      1.0517                 1.0860                 1.0619
 Frc consts  --      1.3934                 1.4476                 1.4334
 IR Inten    --      1.6853                14.0644                12.5412

                     46                     47                     48
                      A                      A                      A
 Frequencies --   1517.0316              1529.7627              1623.8195
 Red. masses --      2.1861                 1.1056                 5.9647
 Frc consts  --      2.9642                 1.5244                 9.2664
 IR Inten    --     67.1855                26.2303                 1.1778

                     49                     50                     51
                      A                      A                      A
 Frequencies --   1642.3925              3049.4666              3057.6816
 Red. masses --      6.1862                 1.0353                 1.0370
 Frc consts  --      9.8317                 5.6725                 5.7124
 IR Inten    --     20.2627                12.1405                12.2900

                     52                     53                     54
                      A                      A                      A
 Frequencies --   3076.4643              3119.5160              3128.1608
 Red. masses --      1.0869                 1.1018                 1.1013
 Frc consts  --      6.0607                 6.3173                 6.3493
 IR Inten    --     17.5562                 3.7723                60.0498

                     55                     56                     57
                      A                      A                      A
 Frequencies --   3136.2239              3155.4739              3191.2220
 Red. masses --      1.1034                 1.1016                 1.0862
 Frc consts  --      6.3943                 6.4628                 6.5175
 IR Inten    --     28.3117                 8.6046                 2.1940

                     58                     59                     60
                      A                      A                      A
 Frequencies --   3205.7976              3220.6097              3226.5796
 Red. masses --      1.0917                 1.0943                 1.0944
 Frc consts  --      6.6106                 6.6878                 6.7128
 IR Inten    --     14.3012                 8.6002                 5.8815

 - Thermochemistry -
 -------------------
 Temperature   298.150 Kelvin.  Pressure   1.00000 Atm.
 Atom     1 has atomic number  6 and mass  12.00000

 Molecular mass:   213.99933 amu.
 Principal axes and moments of inertia in atomic units:
                           1         2         3
     Eigenvalues --  1930.531852455.100413969.41627
           X            0.97130  -0.23785   0.00078
           Y            0.23784   0.97126  -0.00975
           Z            0.00156   0.00965   0.99995
 This molecule is an asymmetric top.
 Rotational symmetry number  1.
 Warning -- assumption of classical behavior for rotation
           may cause significant error
 Rotational temperatures (Kelvin)      0.04487     0.03528     0.02182
 Rotational constants (GHZ):           0.93484     0.73510     0.45466
 Zero-point vibrational energy     472175.3 (Joules/Mol)
                                  112.85261 (Kcal/Mol)
 Warning -- explicit consideration of  15 degrees of freedom as
           vibrations may cause significant error
 Vibrational temperatures:     58.77   134.09   139.55   232.93   255.90
          (Kelvin)            366.48   402.54   417.59   445.97   517.59
                              560.51   664.76   691.98   736.34   767.20
                              893.68   961.53  1081.55  1097.65  1146.50
                             1237.55  1273.80  1345.68  1357.90  1372.95
                             1393.33  1427.71  1510.13  1539.93  1646.01
                             1659.95  1678.49  1707.24  1734.90  1817.33
                             1852.71  1916.88  1973.45  2017.35  2036.76
                             2060.00  2129.26  2157.55  2164.06  2177.76
                             2182.67  2200.99  2336.31  2363.04  4387.50
                             4399.32  4426.35  4488.29  4500.73  4512.33
                             4540.02  4591.46  4612.43  4633.74  4642.33

 Zero-point correction=                           0.179842 (Hartree/Particle)
 Thermal correction to Energy=                    0.190706
 Thermal correction to Enthalpy=                  0.191650
 Thermal correction to Gibbs Free Energy=         0.142089
 Sum of electronic and zero-point Energies=          -2996.385469
 Sum of electronic and thermal Energies=             -2996.374605
 Sum of electronic and thermal Enthalpies=           -2996.373661
 Sum of electronic and thermal Free Energies=        -2996.423222

                     E (Thermal)             CV                S
                      KCal/Mol        Cal/Mol-Kelvin    Cal/Mol-Kelvin
 Total                  119.670             40.839            104.310
 Electronic               0.000              0.000              0.000
 Translational            0.889              2.981             41.986
 Rotational               0.889              2.981             31.309
 Vibrational            117.892             34.877             31.015
 Vibration     1          0.594              1.981              5.218
 Vibration     2          0.602              1.954              3.592
 Vibration     3          0.603              1.951              3.514
 Vibration     4          0.622              1.889              2.528
 Vibration     5          0.628              1.870              2.351
 Vibration     6          0.665              1.755              1.698
 Vibration     7          0.680              1.711              1.535
 Vibration     8          0.686              1.692              1.473
 Vibration     9          0.699              1.655              1.363
 Vibration    10          0.734              1.555              1.123
 Vibration    11          0.757              1.492              1.002
 Vibration    12          0.820              1.334              0.760
 Vibration    13          0.837              1.292              0.708
 Vibration    14          0.867              1.224              0.629
 Vibration    15          0.888              1.177              0.580

 Optimization completed.
    -- Stationary point found.
 Normal termination of Gaussian 16 at Tue Sep 17 09:58:17 2024.

 ----------------------------------------------------------------------
 #p M062X/def2tzvp geom=check guess=read scf(xqc,tight) integral(grid=u
 ltrafine) scrf(SMD, solvent=1,4-Dioxane) polar prop=efg volume
 ----------------------------------------------------------------------

 ---
 spe
 ---
 Structure from the checkpoint file:  "smiles_00017_conf_1.chk"
 Charge =  0 Multiplicity = 1

 SCF Done:  E(RM062X) =  -2998.97110392     A.U. after   11 cycles

  Exact polarizability:     161.985       2.774     175.376     -10.016       4.606     100.458
 Approx polarizability:     170.975       7.241     188.722     -12.563       9.049     121.349

 Normal termination of Gaussian 16 at Tue Sep 17 10:49:52 2024.
 Gaussian 16:  ES64L-G16RevC.02  7-Dec-2021

 ----------------------------------------------------------------------
 #p M062X/def2tzvp geom=check guess=read scf(xqc,tight) integral(grid=u
 ltrafine) scrf(SMD, solvent=1,4-Dioxane) nmr=giao
 ----------------------------------------------------------------------

 ---
 spe
 ---
 Structure from the checkpoint file:  "smiles_00017_conf_1.chk"
 Charge =  0 Multiplicity = 1

                         Standard orientation:
 ---------------------------------------------------------------------
 Center     Atomic      Atomic             Coordinates (Angstroms)
 Number     Number       Type             X           Y           Z
 ---------------------------------------------------------------------
      1          6           0        1.592375   -1.374589    1.365396
      2          6           0        2.102460   -1.202026   -0.061086
      3          6           0        3.463254   -0.513190   -0.116629
      4          8           0        1.138080   -0.531979   -0.922375
      5          6           0        0.487121    0.570616   -0.447433
      6          6           0        1.099202    1.829558   -0.419413
      7          6           0        0.400868    2.953521    0.017647
      8          6           0       -0.928941    2.838932    0.422270
      9          6           0       -1.562086    1.597564    0.380610
     10          6           0       -0.855622    0.477807   -0.050647
     11         35           0       -1.739009   -1.210506   -0.118118
     12          1           0        1.506932   -0.408427    1.872075
     13          1           0        2.296145   -1.991401    1.932236
     14          1           0        0.613875   -1.857586    1.373745
     15          1           0        2.183451   -2.185045   -0.535000
     16          1           0        3.764235   -0.341597   -1.153495
     17          1           0        4.219595   -1.142087    0.364123
     18          1           0        3.445056    0.445849    0.409359
     19          1           0        2.122218    1.913222   -0.766151
     20          1           0        0.894628    3.919931    0.031961
     21          1           0       -1.479072    3.711027    0.760099
     22          1           0       -2.598188    1.490507    0.679866
 ---------------------------------------------------------------------

 SCF Done:  E(RM062X) =  -2998.97110392     A.U. after    1 cycles

      1  C    Isotropic =   165.7339   Anisotropy =    31.3047

      2  C    Isotropic =   104.1110   Anisotropy =    82.2706

      3  C    Isotropic =   161.2385   Anisotropy =    36.3053

      4  O    Isotropic =   196.4577   Anisotropy =   118.3708

      5  C    Isotropic =     8.2681   Anisotropy =   161.4398

      6  C    Isotropic =    37.0979   Anisotropy =   186.0152

      7  C    Isotropic =    34.9788   Anisotropy =   211.6519

      8  C    Isotropic =    39.9918   Anisotropy =   207.4607

      9  C    Isotropic =    29.1961   Anisotropy =   182.9589

     10  C    Isotropic =    29.0622   Anisotropy =   121.0519

     11  Br   Isotropic =  2154.5079   Anisotropy =  1044.7454

     12  H    Isotropic =    31.2737   Anisotropy =     2.9262

     13  H    Isotropic =    31.0666   Anisotropy =    10.5800

     14  H    Isotropic =    29.9695   Anisotropy =     8.9348

     15  H    Isotropic =    27.1503   Anisotropy =     5.5564

     16  H    Isotropic =    30.1683   Anisotropy =     8.7398

     17  H    Isotropic =    30.8164   Anisotropy =    10.1946

     18  H    Isotropic =    30.3662   Anisotropy =     5.5567

     19  H    Isotropic =    23.8836   Anisotropy =     9.5162

     20  H    Isotropic =    23.7554   Anisotropy =     5.7425

     21  H    Isotropic =    23.9952   Anisotropy =     5.1990

     22  H    Isotropic =    23.5381   Anisotropy =    10.7543

 The electronic state is 1-A.
 Alpha  occ. eigenvalues -- -485.37225 -63.35693 -57.17642 -57.17406 -57.17393
 Alpha  occ. eigenvalues --  -19.64052 -10.61027 -10.59889 -10.59601 -10.55572
 Alpha  occ. eigenvalues --  -10.55101 -10.54917 -10.54888 -10.52482 -10.52311
 Alpha  occ. eigenvalues --   -9.02331  -6.84745  -6.83871  -6.83828  -2.88123
 Alpha  occ. eigenvalues --   -2.87812  -2.87766  -2.86951  -2.86950  -1.17555
 Alpha  occ. eigenvalues --   -0.97392  -0.89829  -0.88655  -0.84154  -0.81198
 Alpha  occ. eigenvalues --   -0.78237  -0.71612  -0.69309  -0.65480  -0.58497
 Alpha  occ. eigenvalues --   -0.56715  -0.55646  -0.54597  -0.51481  -0.50004
 Alpha  occ. eigenvalues --   -0.48616  -0.47734  -0.46236  -0.44847  -0.43803
 Alpha  occ. eigenvalues --   -0.43064  -0.42746  -0.40847  -0.38948  -0.37557
 Alpha  occ. eigenvalues --   -0.35443  -0.33989  -0.30830  -0.29134
 Alpha virt. eigenvalues --    0.00888   0.01641   0.03995   0.07415   0.09627
 Alpha virt. eigenvalues --    0.10436   0.10865   0.12664   0.13002   0.13785
 Alpha virt. eigenvalues --    0.14203   0.15292   0.15730   0.16789   0.17138

 Mulliken charges:
               1
     1  C   -0.483847
     2  C    0.054519
     3  C   -0.473180
     4  O   -0.316830
     5  C    0.146511
     6  C   -0.157434
     7  C   -0.173067
     8  C   -0.160787
     9  C   -0.165569
    10  C    0.018860
    11  Br  -0.106221
    12  H    0.170019
    13  H    0.159462
    14  H    0.165834
    15  H    0.139603
    16  H    0.167022
    17  H    0.157702
    18  H    0.149614
    19  H    0.199997
    20  H    0.165604
    21  H    0.165246
    22  H    0.176941
 Sum of Mulliken charges =  -0.00000

 Dipole moment (field-independent basis, Debye):
    X=              1.9716    Y=              1.4351    Z=              1.4571  Tot=              2.8407
 Quadrupole moment (field-independent basis, Debye-Ang):
   XX=            -72.0646   YY=            -70.7092   ZZ=            -82.8240
   XY=             -3.1089   XZ=             -0.7861   YZ=             -0.0965

 Normal termination of Gaussian 16 at Tue Sep 17 11:09:25 2024.
