 Gaussian 16, Revision C.02,

 ----------------------------------------------------------------------
 #p B3LYP/6-31G(d,p) EmpiricalDispersion=GD3BJ opt freq scf(xqc,tight)
 integral(grid=ultrafine)
 ----------------------------------------------------------------------

 ----------------------------------
 opt-freq conformers_unique/conf_ag
 ----------------------------------
 Symbolic Z-matrix:
 Charge =  0 Multiplicity = 1

 SCF Done:  E(RB3LYP) =  -2996.56288774     A.U. after   14 cycles
 SCF Done:  E(RB3LYP) =  -2996.56465858     A.U. after   12 cycles
 SCF Done:  E(RB3LYP) =  -2996.56475725     A.U. after   12 cycles
 SCF Done:  E(RB3LYP) =  -2996.56519573     A.U. after   11 cycles
 SCF Done:  E(RB3LYP) =  -2996.56528566     A.U. after   11 cycles
 SCF Done:  E(RB3LYP) =  -2996.56530128     A.U. after   10 cycles
 SCF Done:  E(RB3LYP) =  -2996.56530631     A.U. after    9 cycles
 SCF Done:  E(RB3LYP) =  -2996.56530959     A.U. after    9 cycles
 SCF Done:  E(RB3LYP) =  -2996.56531082     A.U. after    9 cycles
 SCF Done:  E(RB3LYP) =  -2996.56531093     A.U. after    6 cycles
 Optimization completed.
    -- Stationary point found.
 Normal termination of Gaussian 16 at Tue Sep 17 09:55:37 2024.

 ----------------------------------------------------------------------
 #P Geom=AllCheck Guess=TCheck SCRF=Check GenChk RB3LYP/6-31G(d,p) Freq
 ----------------------------------------------------------------------

 Structure from the checkpoint file:  "smiles_00017_conf_6.chk"
 ----------------------------------
 opt-freq conformers_unique/conf_ag
 ----------------------------------
 Charge =  0 Multiplicity = 1

 SCF Done:  E(RB3LYP) =  -2996.56531093     A.U. after    1 cycles

                      1                      2                      3
                      A                      A                      A
 Frequencies --     40.7755                93.2346                97.0011
 Red. masses --      2.6734                 4.6275                 4.0744
 Frc consts  --      0.0026                 0.0237                 0.0226
 IR Inten    --      0.1210                 1.6642                 0.6589

                      4                      5                      6
                      A                      A                      A
 Frequencies --    161.8915               177.8685               254.6804
 Red. masses --      4.4188                 5.4728                 1.0928
 Frc consts  --      0.0682                 0.1020                 0.0418
 IR Inten    --      0.4258                 1.0038                 0.0390

                      7                      8                      9
                      A                      A                      A
 Frequencies --    279.7729               290.2327               309.9669
 Red. masses --      1.6516                 1.9991                 4.4579
 Frc consts  --      0.0762                 0.0992                 0.2524
 IR Inten    --      0.2511                 1.3399                 0.8811

                     10                     11                     12
                      A                      A                      A
 Frequencies --    359.7474               389.5688               462.0303
 Red. masses --      3.0477                 2.4896                 3.1366
 Frc consts  --      0.2324                 0.2226                 0.3945
 IR Inten    --      0.9892                 1.1925                 3.7851

                     13                     14                     15
                      A                      A                      A
 Frequencies --    480.9499               511.7798               533.2241
 Red. masses --      3.9328                 3.9046                 5.1847
 Frc consts  --      0.5360                 0.6025                 0.8685
 IR Inten    --      6.3386                 3.5019                 5.0500

                     16                     17                     18
                      A                      A                      A
 Frequencies --    621.1334               668.2994               751.7021
 Red. masses --      3.4186                 6.3948                 3.8072
 Frc consts  --      0.7771                 1.6827                 1.2675
 IR Inten    --      2.1061                12.7349                 7.8021

                     19                     20                     21
                      A                      A                      A
 Frequencies --    762.8946               796.8543               860.1480
 Red. masses --      1.5962                 2.3665                 3.1407
 Frc consts  --      0.5474                 0.8853                 1.3691
 IR Inten    --     16.5434                25.3201                 9.5277

                     22                     23                     24
                      A                      A                      A
 Frequencies --    885.3347               935.2972               943.7891
 Red. masses --      1.5454                 1.3068                 1.3313
 Frc consts  --      0.7137                 0.6735                 0.6987
 IR Inten    --      1.9165                 0.6159                 4.3782

                     25                     26                     27
                      A                      A                      A
 Frequencies --    954.2302               968.3861               992.3093
 Red. masses --      1.7213                 2.0025                 1.2944
 Frc consts  --      0.9235                 1.1064                 0.7509
 IR Inten    --     15.0659                42.2606                 0.5401

                     28                     29                     30
                      A                      A                      A
 Frequencies --   1049.5982              1070.3036              1144.0406
 Red. masses --      7.5424                 1.9453                 1.7143
 Frc consts  --      4.8956                 1.3130                 1.3220
 IR Inten    --     41.0645                 6.0970                 7.0271

                     31                     32                     33
                      A                      A                      A
 Frequencies --   1153.7354              1166.5808              1186.5898
 Red. masses --      1.7934                 1.9637                 1.0901
 Frc consts  --      1.4065                 1.5746                 0.9043
 IR Inten    --     17.4387               105.2455                 1.0993

                     34                     35                     36
                      A                      A                      A
 Frequencies --   1205.8237              1263.1053              1287.7012
 Red. masses --      1.9683                 2.4774                 1.6407
 Frc consts  --      1.6862                 2.3288                 1.6030
 IR Inten    --      7.5880               128.9909                35.0463

                     37                     38                     39
                      A                      A                      A
 Frequencies --   1332.3226              1371.6272              1402.1080
 Red. masses --      7.9048                 1.3336                 1.2719
 Frc consts  --      8.2672                 1.4783                 1.4733
 IR Inten    --      1.6684                 4.0288                 1.2557

                     40                     41                     42
                      A                      A                      A
 Frequencies --   1415.6226              1431.7697              1479.9124
 Red. masses --      1.3379                 1.2492                 2.2112
 Frc consts  --      1.5797                 1.5088                 2.8534
 IR Inten    --     16.7548                21.4569                11.4479

                     43                     44                     45
                      A                      A                      A
 Frequencies --   1499.5691              1504.0937              1513.6205
 Red. masses --      1.0517                 1.0859                 1.0618
 Frc consts  --      1.3934                 1.4474                 1.4333
 IR Inten    --      1.6859                14.0469                12.5125

                     46                     47                     48
                      A                      A                      A
 Frequencies --   1517.0435              1529.7618              1623.8281
 Red. masses --      2.1866                 1.1056                 5.9653
 Frc consts  --      2.9649                 1.5245                 9.2675
 IR Inten    --     67.2058                26.2537                 1.1792

                     49                     50                     51
                      A                      A                      A
 Frequencies --   1642.4075              3049.4884              3057.6988
 Red. masses --      6.1864                 1.0353                 1.0370
 Frc consts  --      9.8321                 5.6726                 5.7125
 IR Inten    --     20.2634                12.1373                12.2996

                     52                     53                     54
                      A                      A                      A
 Frequencies --   3076.4678              3119.5387              3128.1756
 Red. masses --      1.0869                 1.1018                 1.1013
 Frc consts  --      6.0608                 6.3174                 6.3494
 IR Inten    --     17.5590                 3.7535                60.0657

                     55                     56                     57
                      A                      A                      A
 Frequencies --   3136.2545              3155.4974              3191.2361
 Red. masses --      1.1034                 1.1016                 1.0862
 Frc consts  --      6.3945                 6.4629                 6.5176
 IR Inten    --     28.2950                 8.6051                 2.1929

                     58                     59                     60
                      A                      A                      A
 Frequencies --   3205.8092              3220.6142              3226.5686
 Red. masses --      1.0917                 1.0943                 1.0944
 Frc consts  --      6.6106                 6.6878                 6.7128
 IR Inten    --     14.2955                 8.6072                 5.8813

 - Thermochemistry -
 -------------------
 Temperature   298.150 Kelvin.  Pressure   1.00000 Atm.
 Atom     1 has atomic number  6 and mass  12.00000

 Molecular mass:   213.99933 amu.
 Principal axes and moments of inertia in atomic units:
                           1         2         3
     Eigenvalues --  1930.558982454.960973969.31346
           X            0.97129   0.23791  -0.00078
           Y           -0.23791   0.97124  -0.00975
           Z           -0.00156   0.00965   0.99995
 This molecule is an asymmetric top.
 Rotational symmetry number  1.
 Warning -- assumption of classical behavior for rotation
           may cause significant error
 Rotational temperatures (Kelvin)      0.04486     0.03528     0.02182
 Rotational constants (GHZ):           0.93483     0.73514     0.45467
 Zero-point vibrational energy     472175.7 (Joules/Mol)
                                  112.85271 (Kcal/Mol)
 Warning -- explicit consideration of  15 degrees of freedom as
           vibrations may cause significant error
 Vibrational temperatures:     58.67   134.14   139.56   232.93   255.91
          (Kelvin)            366.43   402.53   417.58   445.97   517.60
                              560.50   664.76   691.98   736.34   767.19
                              893.67   961.53  1081.53  1097.64  1146.50
                             1237.56  1273.80  1345.68  1357.90  1372.92
                             1393.29  1427.71  1510.14  1539.93  1646.02
                             1659.97  1678.45  1707.24  1734.91  1817.33
                             1852.71  1916.92  1973.47  2017.32  2036.77
                             2060.00  2129.26  2157.55  2164.06  2177.76
                             2182.69  2200.99  2336.33  2363.06  4387.53
                             4399.35  4426.35  4488.32  4500.75  4512.37
                             4540.06  4591.48  4612.44  4633.75  4642.31

 Zero-point correction=                           0.179842 (Hartree/Particle)
 Thermal correction to Energy=                    0.190706
 Thermal correction to Enthalpy=                  0.191650
 Thermal correction to Gibbs Free Energy=         0.142088
 Sum of electronic and zero-point Energies=          -2996.385469
 Sum of electronic and thermal Energies=             -2996.374605
 Sum of electronic and thermal Enthalpies=           -2996.373661
 Sum of electronic and thermal Free Energies=        -2996.423223

                     E (Thermal)             CV                S
                      KCal/Mol        Cal/Mol-Kelvin    Cal/Mol-Kelvin
 Total                  119.670             40.839            104.313
 Electronic               0.000              0.000              0.000
 Translational            0.889              2.981             41.986
 Rotational               0.889              2.981             31.309
 Vibrational            117.892             34.877             31.018
 Vibration     1          0.594              1.981              5.221
 Vibration     2          0.602              1.954              3.591
 Vibration     3          0.603              1.951              3.514
 Vibration     4          0.622              1.889              2.528
 Vibration     5          0.628              1.870              2.351
 Vibration     6          0.665              1.755              1.698
 Vibration     7          0.680              1.711              1.535
 Vibration     8          0.686              1.692              1.473
 Vibration     9          0.699              1.655              1.363
 Vibration    10          0.734              1.555              1.123
 Vibration    11          0.757              1.492              1.002
 Vibration    12          0.820              1.334              0.760
 Vibration    13          0.837              1.292              0.708
 Vibration    14          0.867              1.224              0.629
 Vibration    15          0.888              1.177              0.580

 Optimization completed.
    -- Stationary point found.
 Normal termination of Gaussian 16 at Tue Sep 17 09:57:45 2024.

 ----------------------------------------------------------------------
 #p M062X/def2tzvp geom=check guess=read scf(xqc,tight) integral(grid=u
 ltrafine) scrf(SMD, solvent=1,4-Dioxane) polar prop=efg volume
 ----------------------------------------------------------------------

 ---
 spe
 ---
 Structure from the checkpoint file:  "smiles_00017_conf_6.chk"
 Charge =  0 Multiplicity = 1

 SCF Done:  E(RM062X) =  -2998.97110347     A.U. after   11 cycles

  Exact polarizability:     161.983      -2.773     175.376      10.016       4.607     100.458
 Approx polarizability:     170.974      -7.240     188.721      12.563       9.051     121.350

 Normal termination of Gaussian 16 at Tue Sep 17 10:43:13 2024.
 Gaussian 16:  ES64L-G16RevC.02  7-Dec-2021

 ----------------------------------------------------------------------
 #p M062X/def2tzvp geom=check guess=read scf(xqc,tight) integral(grid=u
 ltrafine) scrf(SMD, solvent=1,4-Dioxane) nmr=giao
 ----------------------------------------------------------------------

 ---
 spe
 ---
 Structure from the checkpoint file:  "smiles_00017_conf_6.chk"
 Charge =  0 Multiplicity = 1

                         Standard orientation:
 ---------------------------------------------------------------------
 Center     Atomic      Atomic             Coordinates (Angstroms)
 Number     Number       Type             X           Y           Z
 ---------------------------------------------------------------------
      1          6           0       -3.463149   -0.513038   -0.116460
      2          6           0       -2.102438   -1.202027   -0.061122
      3          6           0       -1.592244   -1.374869    1.365276
      4          8           0       -1.138082   -0.531914   -0.922465
      5          6           0       -0.487108    0.570661   -0.447500
      6          6           0       -1.099190    1.829601   -0.419396
      7          6           0       -0.400851    2.953533    0.017713
      8          6           0        0.928963    2.838922    0.422330
      9          6           0        1.562093    1.597557    0.380630
     10          6           0        0.855618    0.477836   -0.050704
     11         35           0        1.738930   -1.210506   -0.118117
     12          1           0       -3.444784    0.445937    0.409636
     13          1           0       -4.219518   -1.141906    0.364279
     14          1           0       -3.764181   -0.341297   -1.153282
     15          1           0       -2.183580   -2.184970   -0.535170
     16          1           0       -2.296011   -1.991709    1.932093
     17          1           0       -1.506656   -0.408804    1.872106
     18          1           0       -0.613794   -1.857965    1.373443
     19          1           0       -2.122215    1.913272   -0.766110
     20          1           0       -0.894608    3.919942    0.032083
     21          1           0        1.479093    3.710995    0.760212
     22          1           0        2.598183    1.490469    0.679913
 ---------------------------------------------------------------------

 SCF Done:  E(RM062X) =  -2998.97110347     A.U. after    1 cycles

      1  C    Isotropic =   161.2392   Anisotropy =    36.3019

      2  C    Isotropic =   104.1037   Anisotropy =    82.2842

      3  C    Isotropic =   165.7358   Anisotropy =    31.3050

      4  O    Isotropic =   196.4472   Anisotropy =   118.3749

      5  C    Isotropic =     8.2704   Anisotropy =   161.4374

      6  C    Isotropic =    37.0977   Anisotropy =   186.0152

      7  C    Isotropic =    34.9802   Anisotropy =   211.6505

      8  C    Isotropic =    39.9922   Anisotropy =   207.4614

      9  C    Isotropic =    29.1975   Anisotropy =   182.9580

     10  C    Isotropic =    29.0647   Anisotropy =   121.0527

     11  Br   Isotropic =  2154.5165   Anisotropy =  1044.6851

     12  H    Isotropic =    30.3661   Anisotropy =     5.5560

     13  H    Isotropic =    30.8165   Anisotropy =    10.1947

     14  H    Isotropic =    30.1684   Anisotropy =     8.7398

     15  H    Isotropic =    27.1502   Anisotropy =     5.5562

     16  H    Isotropic =    31.0666   Anisotropy =    10.5803

     17  H    Isotropic =    31.2738   Anisotropy =     2.9259

     18  H    Isotropic =    29.9688   Anisotropy =     8.9358

     19  H    Isotropic =    23.8837   Anisotropy =     9.5161

     20  H    Isotropic =    23.7555   Anisotropy =     5.7425

     21  H    Isotropic =    23.9953   Anisotropy =     5.1991

     22  H    Isotropic =    23.5381   Anisotropy =    10.7542

 The electronic state is 1-A.
 Alpha  occ. eigenvalues -- -485.37225 -63.35693 -57.17642 -57.17406 -57.17393
 Alpha  occ. eigenvalues --  -19.64051 -10.61027 -10.59889 -10.59601 -10.55572
 Alpha  occ. eigenvalues --  -10.55101 -10.54917 -10.54888 -10.52482 -10.52311
 Alpha  occ. eigenvalues --   -9.02331  -6.84745  -6.83871  -6.83828  -2.88123
 Alpha  occ. eigenvalues --   -2.87812  -2.87766  -2.86951  -2.86950  -1.17554
 Alpha  occ. eigenvalues --   -0.97392  -0.89829  -0.88655  -0.84154  -0.81198
 Alpha  occ. eigenvalues --   -0.78237  -0.71611  -0.69309  -0.65480  -0.58497
 Alpha  occ. eigenvalues --   -0.56715  -0.55646  -0.54597  -0.51481  -0.50004
 Alpha  occ. eigenvalues --   -0.48616  -0.47735  -0.46236  -0.44847  -0.43802
 Alpha  occ. eigenvalues --   -0.43064  -0.42746  -0.40847  -0.38948  -0.37557
 Alpha  occ. eigenvalues --   -0.35443  -0.33989  -0.30830  -0.29134
 Alpha virt. eigenvalues --    0.00888   0.01641   0.03996   0.07415   0.09627
 Alpha virt. eigenvalues --    0.10436   0.10865   0.12663   0.13002   0.13785
 Alpha virt. eigenvalues --    0.14203   0.15292   0.15731   0.16789   0.17138

 Mulliken charges:
               1
     1  C   -0.473204
     2  C    0.054548
     3  C   -0.483855
     4  O   -0.316843
     5  C    0.146491
     6  C   -0.157431
     7  C   -0.173079
     8  C   -0.160778
     9  C   -0.165585
    10  C    0.018897
    11  Br  -0.106226
    12  H    0.149624
    13  H    0.157701
    14  H    0.167024
    15  H    0.139604
    16  H    0.159465
    17  H    0.170021
    18  H    0.165834
    19  H    0.200002
    20  H    0.165604
    21  H    0.165246
    22  H    0.176941
 Sum of Mulliken charges =  -0.00000

 Dipole moment (field-independent basis, Debye):
    X=             -1.9716    Y=              1.4349    Z=              1.4574  Tot=              2.8408
 Quadrupole moment (field-independent basis, Debye-Ang):
   XX=            -72.0647   YY=            -70.7090   ZZ=            -82.8240
   XY=              3.1092   XZ=              0.7861   YZ=             -0.0963

 Normal termination of Gaussian 16 at Tue Sep 17 11:00:16 2024.
