 Gaussian 16, Revision C.02,

 ----------------------------------------------------------------------
 #p B3LYP/6-31G(d,p) EmpiricalDispersion=GD3BJ opt freq scf(xqc,tight)
 integral(grid=ultrafine)
 ----------------------------------------------------------------------

 ----------------------------------
 opt-freq conformers_unique/conf_aa
 ----------------------------------
 Symbolic Z-matrix:
 Charge =  0 Multiplicity = 1

 SCF Done:  E(RB3LYP) =  -3071.58193992     A.U. after   14 cycles
 SCF Done:  E(RB3LYP) =  -3071.58304754     A.U. after   11 cycles
 SCF Done:  E(RB3LYP) =  -3071.58307970     A.U. after   10 cycles
 SCF Done:  E(RB3LYP) =  -3071.58308267     A.U. after    8 cycles
 SCF Done:  E(RB3LYP) =  -3071.58308308     A.U. after    7 cycles
 Optimization completed.
    -- Stationary point found.
 Normal termination of Gaussian 16 at Tue Sep 17 09:52:23 2024.

 ----------------------------------------------------------------------
 #P Geom=AllCheck Guess=TCheck SCRF=Check GenChk RB3LYP/6-31G(d,p) Freq
 ----------------------------------------------------------------------

 Structure from the checkpoint file:  "smiles_00061_conf_0.chk"
 ----------------------------------
 opt-freq conformers_unique/conf_aa
 ----------------------------------
 Charge =  0 Multiplicity = 1

 SCF Done:  E(RB3LYP) =  -3071.58308308     A.U. after    1 cycles

                      1                      2                      3
                      A                      A                      A
 Frequencies --     52.7831               107.7476               141.2847
 Red. masses --      5.3673                 3.9881                 6.1533
 Frc consts  --      0.0088                 0.0273                 0.0724
 IR Inten    --      0.3204                 2.9668                 0.4496

                      4                      5                      6
                      A                      A                      A
 Frequencies --    179.0916               199.0817               206.2249
 Red. masses --      3.2499                 3.8743                 5.6578
 Frc consts  --      0.0614                 0.0905                 0.1418
 IR Inten    --      0.0941                 2.7262                 1.8859

                      7                      8                      9
                      A                      A                      A
 Frequencies --    261.2403               286.4022               365.4263
 Red. masses --      1.2526                 6.8649                 5.2228
 Frc consts  --      0.0504                 0.3318                 0.4109
 IR Inten    --      0.0674                 0.0982                 0.0199

                     10                     11                     12
                      A                      A                      A
 Frequencies --    384.8072               413.0805               480.2374
 Red. masses --      4.2927                 3.3498                 5.2567
 Frc consts  --      0.3745                 0.3368                 0.7143
 IR Inten    --      2.3288                 0.1475                13.0341

                     13                     14                     15
                      A                      A                      A
 Frequencies --    488.0345               531.3574               537.5777
 Red. masses --      2.6339                 6.7399                 4.5921
 Frc consts  --      0.3696                 1.1212                 0.7819
 IR Inten    --      8.1387                 5.8887                10.2983

                     16                     17                     18
                      A                      A                      A
 Frequencies --    565.2120               658.2552               665.6009
 Red. masses --      3.2501                 7.1478                 3.6651
 Frc consts  --      0.6117                 1.8248                 0.9567
 IR Inten    --      1.0841                 0.6231                 1.9454

                     19                     20                     21
                      A                      A                      A
 Frequencies --    738.2672               766.7674               816.4326
 Red. masses --      6.5596                 2.8650                 1.3260
 Frc consts  --      2.1065                 0.9924                 0.5208
 IR Inten    --      2.6762                 0.1447                 5.0887

                     22                     23                     24
                      A                      A                      A
 Frequencies --    817.7023               829.8339               870.5215
 Red. masses --      4.8631                 1.5132                 1.6458
 Frc consts  --      1.9158                 0.6139                 0.7348
 IR Inten    --      4.0040                15.5412                39.9589

                     25                     26                     27
                      A                      A                      A
 Frequencies --    915.7715               920.3913               970.4526
 Red. masses --      1.4993                 5.4008                 1.2901
 Frc consts  --      0.7408                 2.6956                 0.7158
 IR Inten    --     16.9039                61.7084                 0.4896

                     28                     29                     30
                      A                      A                      A
 Frequencies --    976.9511               978.4185              1074.6926
 Red. masses --      1.3241                 3.8379                 4.5576
 Frc consts  --      0.7446                 2.1647                 3.1014
 IR Inten    --      0.0385                 0.6769                47.3872

                     31                     32                     33
                      A                      A                      A
 Frequencies --   1093.4027              1155.0021              1177.7330
 Red. masses --      2.2777                 1.4462                 1.2186
 Frc consts  --      1.6044                 1.1367                 0.9959
 IR Inten    --     23.3606                 9.0026                 0.3770

                     34                     35                     36
                      A                      A                      A
 Frequencies --   1180.2195              1203.7374              1227.3591
 Red. masses --      1.2767                 1.4993                 1.7425
 Frc consts  --      1.0477                 1.2800                 1.5466
 IR Inten    --      0.7628                22.2750                 7.9964

                     37                     38                     39
                      A                      A                      A
 Frequencies --   1249.3828              1296.4254              1303.6945
 Red. masses --      1.7820                 1.8329                 2.7745
 Frc consts  --      1.6389                 1.8151                 2.7783
 IR Inten    --    137.8612                 6.9907               177.8276

                     40                     41                     42
                      A                      A                      A
 Frequencies --   1369.8306              1412.5388              1432.1393
 Red. masses --      1.9180                 5.7202                 3.5276
 Frc consts  --      2.1205                 6.7245                 4.2629
 IR Inten    --      3.0775                10.8264                68.9117

                     43                     44                     45
                      A                      A                      A
 Frequencies --   1456.2465              1482.8302              1503.4590
 Red. masses --      4.8831                 1.2714                 1.0460
 Frc consts  --      6.1012                 1.6471                 1.3931
 IR Inten    --     20.7157                10.6779                 6.0508

                     46                     47                     48
                      A                      A                      A
 Frequencies --   1519.2486              1521.2734              1553.8302
 Red. masses --      1.1214                 2.1089                 3.5272
 Frc consts  --      1.5249                 2.8756                 5.0175
 IR Inten    --     48.7751                 0.1697                54.4797

                     49                     50                     51
                      A                      A                      A
 Frequencies --   1627.5124              1649.9188              1685.1916
 Red. masses --      7.4991                 6.0173                 6.1757
 Frc consts  --     11.7033                 9.6511                10.3331
 IR Inten    --     10.3371               100.0202                89.8042

                     52                     53                     54
                      A                      A                      A
 Frequencies --   3018.1207              3080.3458              3155.3594
 Red. masses --      1.0347                 1.1060                 1.1003
 Frc consts  --      5.5530                 6.1833                 6.4542
 IR Inten    --     50.7560                39.6095                26.8401

                     55                     56                     57
                      A                      A                      A
 Frequencies --   3184.7688              3188.1863              3208.1995
 Red. masses --      1.0891                 1.0888                 1.0916
 Frc consts  --      6.5087                 6.5205                 6.6197
 IR Inten    --      9.1789                 6.4062                 2.3703

                     58                     59                     60
                      A                      A                      A
 Frequencies --   3216.7989              3218.7634              3222.3299
 Red. masses --      1.0945                 1.0899                 1.0939
 Frc consts  --      6.6726                 6.6528                 6.6923
 IR Inten    --      7.8812                10.3185                 4.5176

 - Thermochemistry -
 -------------------
 Temperature   298.150 Kelvin.  Pressure   1.00000 Atm.
 Atom     1 has atomic number  6 and mass  12.00000

 Molecular mass:   235.98368 amu.
 Principal axes and moments of inertia in atomic units:
                           1         2         3
     Eigenvalues --   779.962507959.389508727.86188
           X            0.99998  -0.00625   0.00004
           Y            0.00625   0.99998   0.00008
           Z           -0.00004  -0.00008   1.00000
 This molecule is an asymmetric top.
 Rotational symmetry number  1.
 Warning -- assumption of classical behavior for rotation
           may cause significant error
 Rotational temperatures (Kelvin)      0.11105     0.01088     0.00992
 Rotational constants (GHZ):           2.31388     0.22674     0.20678
 Zero-point vibrational energy     447364.5 (Joules/Mol)
                                  106.92267 (Kcal/Mol)
 Warning -- explicit consideration of  16 degrees of freedom as
           vibrations may cause significant error
 Vibrational temperatures:     75.94   155.02   203.28   257.67   286.43
          (Kelvin)            296.71   375.87   412.07   525.77   553.65
                              594.33   690.95   702.17   764.50   773.45
                              813.21   947.08   957.65  1062.20  1103.21
                             1174.66  1176.49  1193.95  1252.49  1317.59
                             1324.24  1396.26  1405.61  1407.73  1546.24
                             1573.16  1661.79  1694.50  1698.07  1731.91
                             1765.90  1797.58  1865.27  1875.73  1970.88
                             2032.33  2060.53  2095.21  2133.46  2163.14
                             2185.86  2188.77  2235.62  2341.63  2373.87
                             2424.61  4342.40  4431.93  4539.86  4582.17
                             4587.09  4615.88  4628.26  4631.08  4636.21

 Zero-point correction=                           0.170392 (Hartree/Particle)
 Thermal correction to Energy=                    0.181247
 Thermal correction to Enthalpy=                  0.182191
 Thermal correction to Gibbs Free Energy=         0.132617
 Sum of electronic and zero-point Energies=          -3071.412691
 Sum of electronic and thermal Energies=             -3071.401836
 Sum of electronic and thermal Enthalpies=           -3071.400892
 Sum of electronic and thermal Free Energies=        -3071.450466

                     E (Thermal)             CV                S
                      KCal/Mol        Cal/Mol-Kelvin    Cal/Mol-Kelvin
 Total                  113.734             42.128            104.338
 Electronic               0.000              0.000              0.000
 Translational            0.889              2.981             42.277
 Rotational               0.889              2.981             32.360
 Vibrational            111.957             36.167             29.700
 Vibration     1          0.596              1.976              4.710
 Vibration     2          0.606              1.943              3.309
 Vibration     3          0.615              1.912              2.786
 Vibration     4          0.629              1.868              2.338
 Vibration     5          0.637              1.841              2.142
 Vibration     6          0.641              1.831              2.077
 Vibration     7          0.669              1.744              1.653
 Vibration     8          0.684              1.699              1.495
 Vibration     9          0.739              1.543              1.099
 Vibration    10          0.754              1.503              1.020
 Vibration    11          0.777              1.442              0.916
 Vibration    12          0.837              1.294              0.709
 Vibration    13          0.844              1.277              0.689
 Vibration    14          0.886              1.181              0.584
 Vibration    15          0.893              1.167              0.571
 Vibration    16          0.921              1.107              0.514

 Optimization completed.
    -- Stationary point found.
 Normal termination of Gaussian 16 at Tue Sep 17 09:54:56 2024.

 ----------------------------------------------------------------------
 #p M062X/def2tzvp geom=check guess=read scf(xqc,tight) integral(grid=u
 ltrafine) scrf(SMD, solvent=1,4-Dioxane) polar prop=efg volume
 ----------------------------------------------------------------------

 ---
 spe
 ---
 Structure from the checkpoint file:  "smiles_00061_conf_0.chk"
 Charge =  0 Multiplicity = 1

 SCF Done:  E(RM062X) =  -3073.99348306     A.U. after   12 cycles

  Exact polarizability:     287.903       8.872     174.604      -0.008      -0.005      93.757
 Approx polarizability:     282.917      13.599     208.674      -0.008      -0.006     117.664

 Normal termination of Gaussian 16 at Tue Sep 17 11:11:09 2024.
 Gaussian 16:  ES64L-G16RevC.02  7-Dec-2021

 ----------------------------------------------------------------------
 #p M062X/def2tzvp geom=check guess=read scf(xqc,tight) integral(grid=u
 ltrafine) scrf(SMD, solvent=1,4-Dioxane) nmr=giao
 ----------------------------------------------------------------------

 ---
 spe
 ---
 Structure from the checkpoint file:  "smiles_00061_conf_0.chk"
 Charge =  0 Multiplicity = 1

                         Standard orientation:
 ---------------------------------------------------------------------
 Center     Atomic      Atomic             Coordinates (Angstroms)
 Number     Number       Type             X           Y           Z
 ---------------------------------------------------------------------
      1          6           0        5.184342   -0.998539    0.000062
      2          8           0        4.575854    0.283096   -0.000259
      3          6           0        3.215004    0.337278   -0.000189
      4          6           0        2.677143    1.653654   -0.000240
      5          6           0        1.321525    1.848252   -0.000190
      6          6           0        0.423066    0.745628   -0.000085
      7          6           0       -0.982607    0.923302   -0.000026
      8          6           0       -1.809252   -0.174126    0.000074
      9         35           0       -3.706881    0.063130    0.000151
     10          6           0       -1.292826   -1.487946    0.000119
     11          6           0        0.070249   -1.676809    0.000065
     12          6           0        0.967145   -0.577038   -0.000037
     13          6           0        2.375913   -0.758299   -0.000097
     14          1           0        6.260420   -0.822955    0.000199
     15          1           0        4.908830   -1.572997   -0.893271
     16          1           0        4.908544   -1.572680    0.893507
     17          1           0        3.372152    2.486100   -0.000314
     18          1           0        0.915524    2.855505   -0.000226
     19          1           0       -1.396915    1.925411   -0.000061
     20          1           0       -1.973332   -2.331096    0.000197
     21          1           0        0.474716   -2.684956    0.000100
     22          1           0        2.765862   -1.768812   -0.000074
 ---------------------------------------------------------------------

 SCF Done:  E(RM062X) =  -3073.99348306     A.U. after    1 cycles

      1  C    Isotropic =   129.6058   Anisotropy =    73.6957

      2  O    Isotropic =   220.4929   Anisotropy =    98.4658

      3  C    Isotropic =     4.3251   Anisotropy =   162.3102

      4  C    Isotropic =    44.1123   Anisotropy =   178.9252

      5  C    Isotropic =    34.0346   Anisotropy =   189.8396

      6  C    Isotropic =    33.9083   Anisotropy =   230.8255

      7  C    Isotropic =    32.9662   Anisotropy =   162.1627

      8  C    Isotropic =    31.7856   Anisotropy =   130.3479

      9  Br   Isotropic =  2098.8321   Anisotropy =  1290.4357

     10  C    Isotropic =    33.9510   Anisotropy =   178.5316

     11  C    Isotropic =    35.4795   Anisotropy =   182.8845

     12  C    Isotropic =    28.9419   Anisotropy =   244.2165

     13  C    Isotropic =    64.1743   Anisotropy =   154.3940

     14  H    Isotropic =    27.7062   Anisotropy =     8.4538

     15  H    Isotropic =    28.0593   Anisotropy =     7.9967

     16  H    Isotropic =    28.0596   Anisotropy =     7.9958

     17  H    Isotropic =    23.8255   Anisotropy =     7.6434

     18  H    Isotropic =    23.2134   Anisotropy =     8.8151

     19  H    Isotropic =    23.1167   Anisotropy =    12.6375

     20  H    Isotropic =    23.5752   Anisotropy =    10.7648

     21  H    Isotropic =    23.2072   Anisotropy =     9.0924

     22  H    Isotropic =    24.0139   Anisotropy =    10.7040

 The electronic state is 1-A.
 Alpha  occ. eigenvalues -- -485.37304 -63.35781 -57.17725 -57.17491 -57.17486
 Alpha  occ. eigenvalues --  -19.66198 -10.61089 -10.60003 -10.58858 -10.56226
 Alpha  occ. eigenvalues --  -10.55898 -10.55573 -10.55536 -10.55264 -10.55237
 Alpha  occ. eigenvalues --  -10.54792 -10.54440  -9.02423  -6.84825  -6.83957
 Alpha  occ. eigenvalues --   -6.83941  -2.88201  -2.87886  -2.87866  -2.87057
 Alpha  occ. eigenvalues --   -2.87057  -1.19560  -0.99166  -0.94288  -0.89145
 Alpha  occ. eigenvalues --   -0.87343  -0.83904  -0.81865  -0.78361  -0.71764
 Alpha  occ. eigenvalues --   -0.68994  -0.68021  -0.61294  -0.59420  -0.58240
 Alpha  occ. eigenvalues --   -0.55173  -0.54264  -0.52556  -0.52004  -0.49849
 Alpha  occ. eigenvalues --   -0.47897  -0.47858  -0.47509  -0.44649  -0.43708
 Alpha  occ. eigenvalues --   -0.42622  -0.40601  -0.39449  -0.39319  -0.36412
 Alpha  occ. eigenvalues --   -0.34978  -0.33480  -0.29145  -0.26347
 Alpha virt. eigenvalues --   -0.02078   0.00828   0.03841   0.04478   0.07747
 Alpha virt. eigenvalues --    0.09836   0.09966   0.11256   0.11959   0.12773
 Alpha virt. eigenvalues --    0.13458   0.14241   0.15065   0.15294   0.15534

 Mulliken charges:
               1
     1  C   -0.306191
     2  O   -0.285255
     3  C    0.291907
     4  C   -0.207724
     5  C   -0.192578
     6  C    0.066595
     7  C   -0.208963
     8  C    0.049751
     9  Br  -0.120360
    10  C   -0.173564
    11  C   -0.211527
    12  C    0.093617
    13  C   -0.299844
    14  H    0.165299
    15  H    0.159096
    16  H    0.159097
    17  H    0.169423
    18  H    0.161041
    19  H    0.176274
    20  H    0.178556
    21  H    0.159073
    22  H    0.176276
 Sum of Mulliken charges =  -0.00000

 Dipole moment (field-independent basis, Debye):
    X=              3.1630    Y=             -1.3536    Z=              0.0003  Tot=              3.4405
 Quadrupole moment (field-independent basis, Debye-Ang):
   XX=            -83.4367   YY=            -77.2059   ZZ=            -93.5315
   XY=             -6.8376   XZ=              0.0018   YZ=             -0.0008

 Normal termination of Gaussian 16 at Tue Sep 17 11:37:35 2024.
