 Gaussian 16, Revision C.02,

 ----------------------------------------------------------------------
 #p B3LYP/6-31G(d,p) EmpiricalDispersion=GD3BJ opt freq scf(xqc,tight)
 integral(grid=ultrafine)
 ----------------------------------------------------------------------

 ----------------------------------
 opt-freq conformers_unique/conf_ac
 ----------------------------------
 Symbolic Z-matrix:
 Charge =  0 Multiplicity = 1

 SCF Done:  E(RB3LYP) =  -3128.16158458     A.U. after   15 cycles
 SCF Done:  E(RB3LYP) =  -3128.16391791     A.U. after   12 cycles
 SCF Done:  E(RB3LYP) =  -3128.16439395     A.U. after   12 cycles
 SCF Done:  E(RB3LYP) =  -3128.16476074     A.U. after   13 cycles
 SCF Done:  E(RB3LYP) =  -3128.16502085     A.U. after   12 cycles
 SCF Done:  E(RB3LYP) =  -3128.16514673     A.U. after   11 cycles
 SCF Done:  E(RB3LYP) =  -3128.16517811     A.U. after   10 cycles
 SCF Done:  E(RB3LYP) =  -3128.16521524     A.U. after   11 cycles
 SCF Done:  E(RB3LYP) =  -3128.16522419     A.U. after   10 cycles
 SCF Done:  E(RB3LYP) =  -3128.16522574     A.U. after    9 cycles
 SCF Done:  E(RB3LYP) =  -3128.16522591     A.U. after    8 cycles
 Optimization completed.
    -- Stationary point found.
 Normal termination of Gaussian 16 at Tue Sep 17 10:01:07 2024.

 ----------------------------------------------------------------------
 #P Geom=AllCheck Guess=TCheck SCRF=Check GenChk RB3LYP/6-31G(d,p) Freq
 ----------------------------------------------------------------------

 Structure from the checkpoint file:  "smiles_00050_conf_2.chk"
 ----------------------------------
 opt-freq conformers_unique/conf_ac
 ----------------------------------
 Charge =  0 Multiplicity = 1

 SCF Done:  E(RB3LYP) =  -3128.16522591     A.U. after    1 cycles

                      1                      2                      3
                      A                      A                      A
 Frequencies --     29.0089                64.9787                86.9172
 Red. masses --      5.7308                 3.0824                 3.2988
 Frc consts  --      0.0028                 0.0077                 0.0147
 IR Inten    --      1.0765                 0.0553                 1.2655

                      4                      5                      6
                      A                      A                      A
 Frequencies --     99.5346               140.1225               168.7059
 Red. masses --      4.8491                 6.0688                 5.8365
 Frc consts  --      0.0283                 0.0702                 0.0979
 IR Inten    --      0.9024                 0.7259                 0.2173

                      7                      8                      9
                      A                      A                      A
 Frequencies --    212.5235               243.3640               270.8182
 Red. masses --      4.0709                 3.0546                 2.4929
 Frc consts  --      0.1083                 0.1066                 0.1077
 IR Inten    --      2.4751                 1.9999                 5.4539

                     10                     11                     12
                      A                      A                      A
 Frequencies --    287.4778               306.1019               361.5054
 Red. masses --      2.7457                 6.3052                 7.2810
 Frc consts  --      0.1337                 0.3481                 0.5606
 IR Inten    --      3.3678                 0.2872                 6.0062

                     13                     14                     15
                      A                      A                      A
 Frequencies --    401.8331               450.4913               508.0230
 Red. masses --      5.3915                 3.4936                 5.3800
 Frc consts  --      0.5129                 0.4177                 0.8181
 IR Inten    --      7.3001                 3.5423                 1.1707

                     16                     17                     18
                      A                      A                      A
 Frequencies --    578.6020               613.7046               663.4598
 Red. masses --      1.8956                 5.0850                 6.4432
 Frc consts  --      0.3739                 1.1284                 1.6710
 IR Inten    --      1.1831                 5.2524                 1.2562

                     19                     20                     21
                      A                      A                      A
 Frequencies --    699.8537               702.2605               755.5122
 Red. masses --      5.3650                 3.1034                 2.8662
 Frc consts  --      1.5482                 0.9017                 0.9639
 IR Inten    --     59.4524                 2.9918                40.5715

                     22                     23                     24
                      A                      A                      A
 Frequencies --    771.6836               816.1926               864.8298
 Red. masses --      2.8319                 1.7144                 1.8115
 Frc consts  --      0.9936                 0.6729                 0.7983
 IR Inten    --     13.3820                11.9677                 1.4756

                     25                     26                     27
                      A                      A                      A
 Frequencies --    891.1061               920.9190               929.1778
 Red. masses --      1.9520                 2.6599                 1.9618
 Frc consts  --      0.9133                 1.3291                 0.9979
 IR Inten    --      5.1292                 1.6202                 5.9480

                     28                     29                     30
                      A                      A                      A
 Frequencies --    933.6889               937.6265               960.4136
 Red. masses --      1.4357                 1.4518                 1.9003
 Frc consts  --      0.7375                 0.7520                 1.0328
 IR Inten    --      1.9564                 5.3650                 4.8763

                     31                     32                     33
                      A                      A                      A
 Frequencies --    987.1761               990.4239              1018.1399
 Red. masses --      1.8423                 1.3105                 5.6416
 Frc consts  --      1.0578                 0.7574                 3.4456
 IR Inten    --      0.6303                 0.6956                 2.3809

                     34                     35                     36
                      A                      A                      A
 Frequencies --   1047.7776              1097.9683              1122.1916
 Red. masses --      1.8906                 2.1467                 1.5744
 Frc consts  --      1.2229                 1.5248                 1.1682
 IR Inten    --      0.7175                15.4315                 1.5262

                     37                     38                     39
                      A                      A                      A
 Frequencies --   1145.2839              1173.6364              1185.5221
 Red. masses --      1.6528                 1.7534                 2.1731
 Frc consts  --      1.2773                 1.4230                 1.7994
 IR Inten    --      2.6065                 4.8059                 5.0281

                     40                     41                     42
                      A                      A                      A
 Frequencies --   1198.1657              1206.3000              1233.2126
 Red. masses --      1.1201                 1.7997                 2.3026
 Frc consts  --      0.9474                 1.5430                 2.0632
 IR Inten    --      2.2194                 5.1750                54.3860

                     43                     44                     45
                      A                      A                      A
 Frequencies --   1258.3451              1280.4960              1312.1167
 Red. masses --      1.2565                 1.3236                 1.4755
 Frc consts  --      1.1723                 1.2786                 1.4967
 IR Inten    --     22.0840                15.8790                 1.4929

                     46                     47                     48
                      A                      A                      A
 Frequencies --   1327.5115              1355.4379              1357.5080
 Red. masses --      1.3528                 4.7283                 1.2975
 Frc consts  --      1.4046                 5.1181                 1.4088
 IR Inten    --      0.1381                 3.3121                 3.4069

                     49                     50                     51
                      A                      A                      A
 Frequencies --   1376.5241              1385.2617              1424.6548
 Red. masses --      1.5037                 1.4123                 4.8109
 Frc consts  --      1.6787                 1.5968                 5.7530
 IR Inten    --      1.4864                 5.9242               370.7116

                     52                     53                     54
                      A                      A                      A
 Frequencies --   1464.8194              1504.2622              1511.1848
 Red. masses --      3.4438                 1.0912                 1.1885
 Frc consts  --      4.3536                 1.4548                 1.5992
 IR Inten    --    169.6422                 3.3530                 2.7898

                     55                     56                     57
                      A                      A                      A
 Frequencies --   1515.0443              1528.6030              1541.2973
 Red. masses --      2.0885                 1.0832                 1.1071
 Frc consts  --      2.8244                 1.4912                 1.5496
 IR Inten    --      2.2530                 0.3493                 3.8537

                     58                     59                     60
                      A                      A                      A
 Frequencies --   1622.9882              1648.9331              1733.2294
 Red. masses --      6.0394                 6.1584                12.1107
 Frc consts  --      9.3729                 9.8656                21.4353
 IR Inten    --     41.5397                 2.5384               238.0850

                     61                     62                     63
                      A                      A                      A
 Frequencies --   3019.3002              3056.0553              3058.6362
 Red. masses --      1.0716                 1.0695                 1.0648
 Frc consts  --      5.7554                 5.8850                 5.8690
 IR Inten    --     42.1565                23.8281                17.5867

                     64                     65                     66
                      A                      A                      A
 Frequencies --   3064.3110              3104.8028              3118.7847
 Red. masses --      1.0613                 1.1001                 1.0974
 Frc consts  --      5.8716                 6.2479                 6.2892
 IR Inten    --     23.7794                26.5858                23.2319

                     67                     68                     69
                      A                      A                      A
 Frequencies --   3122.8360              3128.7654              3194.3864
 Red. masses --      1.0968                 1.1044                 1.0877
 Frc consts  --      6.3018                 6.3696                 6.5392
 IR Inten    --     19.9124                38.9534                 7.0803

                     70                     71                     72
                      A                      A                      A
 Frequencies --   3217.6550              3224.6378              3235.6316
 Red. masses --      1.0917                 1.0954                 1.0918
 Frc consts  --      6.6593                 6.7112                 6.7347
 IR Inten    --      7.2815                 5.1032                 1.6538

 - Thermochemistry -
 -------------------
 Temperature   298.150 Kelvin.  Pressure   1.00000 Atm.
 Atom     1 has atomic number  8 and mass  15.99491

 Molecular mass:   253.01023 amu.
 Principal axes and moments of inertia in atomic units:
                           1         2         3
     Eigenvalues --  1365.617368650.871609274.14680
           X            0.99983  -0.01204  -0.01420
           Y            0.01199   0.99992  -0.00335
           Z            0.01424   0.00318   0.99989
 This molecule is an asymmetric top.
 Rotational symmetry number  1.
 Warning -- assumption of classical behavior for rotation
           may cause significant error
 Rotational temperatures (Kelvin)      0.06342     0.01001     0.00934
 Rotational constants (GHZ):           1.32156     0.20862     0.19460
 Zero-point vibrational energy     554889.3 (Joules/Mol)
                                  132.62174 (Kcal/Mol)
 Warning -- explicit consideration of  17 degrees of freedom as
           vibrations may cause significant error
 Vibrational temperatures:     41.74    93.49   125.05   143.21   201.61
          (Kelvin)            242.73   305.77   350.15   389.65   413.62
                              440.41   520.13   578.15   648.16   730.93
                              832.48   882.98   954.57  1006.93  1010.40
                             1087.01  1110.28  1174.32  1244.30  1282.10
                             1325.00  1336.88  1343.37  1349.04  1381.82
                             1420.33  1425.00  1464.88  1507.52  1579.73
                             1614.58  1647.81  1688.60  1705.70  1723.89
                             1735.60  1774.32  1810.48  1842.35  1887.84
                             1909.99  1950.17  1953.15  1980.51  1993.08
                             2049.76  2107.55  2164.30  2174.26  2179.81
                             2199.32  2217.58  2335.12  2372.45  2493.73
                             4344.10  4396.98  4400.70  4408.86  4467.12
                             4487.24  4493.06  4501.60  4596.01  4629.49
                             4639.53  4655.35

 Zero-point correction=                           0.211346 (Hartree/Particle)
 Thermal correction to Energy=                    0.223812
 Thermal correction to Enthalpy=                  0.224757
 Thermal correction to Gibbs Free Energy=         0.170379
 Sum of electronic and zero-point Energies=          -3127.953880
 Sum of electronic and thermal Energies=             -3127.941414
 Sum of electronic and thermal Enthalpies=           -3127.940469
 Sum of electronic and thermal Free Energies=        -3127.994847

                     E (Thermal)             CV                S
                      KCal/Mol        Cal/Mol-Kelvin    Cal/Mol-Kelvin
 Total                  140.444             46.933            114.447
 Electronic               0.000              0.000              0.000
 Translational            0.889              2.981             42.485
 Rotational               0.889              2.981             33.060
 Vibrational            138.667             40.972             38.902
 Vibration     1          0.593              1.984              5.896
 Vibration     2          0.597              1.971              4.300
 Vibration     3          0.601              1.958              3.728
 Vibration     4          0.604              1.949              3.463
 Vibration     5          0.615              1.913              2.802
 Vibration     6          0.625              1.881              2.450
 Vibration     7          0.644              1.822              2.022
 Vibration     8          0.659              1.774              1.778
 Vibration     9          0.675              1.727              1.591
 Vibration    10          0.685              1.697              1.489
 Vibration    11          0.696              1.662              1.383
 Vibration    12          0.736              1.552              1.116
 Vibration    13          0.767              1.466              0.956
 Vibration    14          0.809              1.360              0.794
 Vibration    15          0.863              1.232              0.638
 Vibration    16          0.935              1.078              0.488
 Vibration    17          0.973              1.003              0.427

                           ! Non-Optimized Parameters !
 Normal termination of Gaussian 16 at Tue Sep 17 10:04:04 2024.

 ----------------------------------------------------------------------
 #p M062X/def2tzvp geom=check guess=read scf(xqc,tight) integral(grid=u
 ltrafine) scrf(SMD, solvent=1,4-Dioxane) polar prop=efg volume
 ----------------------------------------------------------------------

 ---
 spe
 ---
 Structure from the checkpoint file:  "smiles_00050_conf_2.chk"
 Charge =  0 Multiplicity = 1

 SCF Done:  E(RM062X) =  -3130.56579169     A.U. after   12 cycles

  Exact polarizability:     238.469       3.989     177.050       6.171       2.224     121.075
 Approx polarizability:     224.464       7.931     208.913      11.033       3.478     143.868

 Normal termination of Gaussian 16 at Tue Sep 17 11:46:43 2024.
 Gaussian 16:  ES64L-G16RevC.02  7-Dec-2021

 ----------------------------------------------------------------------
 #p M062X/def2tzvp geom=check guess=read scf(xqc,tight) integral(grid=u
 ltrafine) scrf(SMD, solvent=1,4-Dioxane) nmr=giao
 ----------------------------------------------------------------------

 ---
 spe
 ---
 Structure from the checkpoint file:  "smiles_00050_conf_2.chk"
 Charge =  0 Multiplicity = 1

                         Standard orientation:
 ---------------------------------------------------------------------
 Center     Atomic      Atomic             Coordinates (Angstroms)
 Number     Number       Type             X           Y           Z
 ---------------------------------------------------------------------
      1          8           0        1.383099   -1.820497    1.111641
      2          6           0        1.483597   -0.684991    0.648203
      3          6           0        0.267511    0.187028    0.501294
      4          6           0        0.271811    1.563147    0.754410
      5          6           0       -0.911148    2.295592    0.662002
      6          6           0       -2.104920    1.669259    0.307453
      7          6           0       -2.097487    0.295385    0.068697
      8         35           0       -3.731959   -0.573855   -0.406895
      9          6           0       -0.933482   -0.454398    0.175542
     10          7           0        2.694423   -0.177880    0.267370
     11          6           0        3.870624   -1.059447    0.378171
     12          6           0        4.967031   -0.306632   -0.384428
     13          6           0        4.179071    0.480177   -1.441832
     14          6           0        2.938363    0.936099   -0.664557
     15          1           0        1.190212    2.057447    1.049064
     16          1           0       -0.908026    3.360715    0.870959
     17          1           0       -3.027828    2.230957    0.225018
     18          1           0       -0.937083   -1.526384    0.023390
     19          1           0        4.113832   -1.243294    1.428022
     20          1           0        3.639317   -2.030281   -0.074525
     21          1           0        5.710903   -0.982403   -0.812811
     22          1           0        5.489584    0.386261    0.284633
     23          1           0        3.880429   -0.183228   -2.260993
     24          1           0        4.735207    1.318684   -1.868487
     25          1           0        3.152252    1.864619   -0.118408
     26          1           0        2.068220    1.113634   -1.298973
 ---------------------------------------------------------------------

 SCF Done:  E(RM062X) =  -3130.56579169     A.U. after    1 cycles

      1  O    Isotropic =  -144.8520   Anisotropy =   683.6662

      2  C    Isotropic =    -4.1252   Anisotropy =   132.7835

      3  C    Isotropic =    22.4866   Anisotropy =   200.6113

      4  C    Isotropic =    36.6024   Anisotropy =   217.2798

      5  C    Isotropic =    35.2620   Anisotropy =   210.0885

      6  C    Isotropic =    28.3053   Anisotropy =   188.6782

      7  C    Isotropic =    23.6820   Anisotropy =   143.6298

      8  Br   Isotropic =  2070.3077   Anisotropy =  1313.6018

      9  C    Isotropic =    28.7667   Anisotropy =   190.0011

     10  N    Isotropic =   103.7185   Anisotropy =   182.6279

     11  C    Isotropic =   134.5266   Anisotropy =    41.9780

     12  C    Isotropic =   158.4316   Anisotropy =    20.0522

     13  C    Isotropic =   156.0937   Anisotropy =    18.6716

     14  C    Isotropic =   130.8477   Anisotropy =    40.0515

     15  H    Isotropic =    23.5139   Anisotropy =     9.4242

     16  H    Isotropic =    23.6994   Anisotropy =     6.2056

     17  H    Isotropic =    23.5439   Anisotropy =    10.2120

     18  H    Isotropic =    23.0737   Anisotropy =    13.2601

     19  H    Isotropic =    28.3782   Anisotropy =     8.2131

     20  H    Isotropic =    28.1800   Anisotropy =     8.1961

     21  H    Isotropic =    29.8460   Anisotropy =    10.9121

     22  H    Isotropic =    29.9660   Anisotropy =    10.1487

     23  H    Isotropic =    30.1634   Anisotropy =     9.2805

     24  H    Isotropic =    30.0175   Anisotropy =    10.9479

     25  H    Isotropic =    28.2480   Anisotropy =     8.8770

     26  H    Isotropic =    28.3236   Anisotropy =     6.9849

 The electronic state is 1-A.
 Alpha  occ. eigenvalues -- -485.37581 -63.36060 -57.18006 -57.17769 -57.17762
 Alpha  occ. eigenvalues --  -19.59049 -14.77445 -10.64382 -10.60728 -10.57639
 Alpha  occ. eigenvalues --  -10.56672 -10.56574 -10.56208 -10.56006 -10.55928
 Alpha  occ. eigenvalues --  -10.55844 -10.54142 -10.53933  -9.02704  -6.85112
 Alpha  occ. eigenvalues --   -6.84237  -6.84214  -2.88488  -2.88172  -2.88146
 Alpha  occ. eigenvalues --   -2.87331  -2.87330  -1.15728  -1.05008  -0.98596
 Alpha  occ. eigenvalues --   -0.90814  -0.89001  -0.86552  -0.83402  -0.81995
 Alpha  occ. eigenvalues --   -0.75007  -0.70358  -0.69294  -0.67511  -0.63107
 Alpha  occ. eigenvalues --   -0.60234  -0.57996  -0.56979  -0.54636  -0.52435
 Alpha  occ. eigenvalues --   -0.51388  -0.49998  -0.49907  -0.48474  -0.47227
 Alpha  occ. eigenvalues --   -0.46743  -0.46347  -0.43529  -0.42991  -0.41528
 Alpha  occ. eigenvalues --   -0.41298  -0.40726  -0.39519  -0.37944  -0.35302
 Alpha  occ. eigenvalues --   -0.33904  -0.31745  -0.30399  -0.30110
 Alpha virt. eigenvalues --   -0.01456   0.00548   0.03538   0.05973   0.07644
 Alpha virt. eigenvalues --    0.08929   0.10397   0.10804   0.11299   0.12093
 Alpha virt. eigenvalues --    0.12483   0.13105   0.13894   0.14282   0.15489

 Mulliken charges:
               1
     1  O   -0.421592
     2  C    0.281296
     3  C    0.070700
     4  C   -0.215092
     5  C   -0.143567
     6  C   -0.170085
     7  C    0.061852
     8  Br  -0.108928
     9  C   -0.205954
    10  N   -0.149932
    11  C   -0.193715
    12  C   -0.293731
    13  C   -0.280559
    14  C   -0.251727
    15  H    0.193032
    16  H    0.168542
    17  H    0.180881
    18  H    0.196357
    19  H    0.156437
    20  H    0.163342
    21  H    0.155497
    22  H    0.154222
    23  H    0.157329
    24  H    0.155209
    25  H    0.153280
    26  H    0.186908
 Sum of Mulliken charges =  -0.00000

 Dipole moment (field-independent basis, Debye):
    X=              3.6138    Y=              4.4709    Z=             -1.8753  Tot=              6.0469
 Quadrupole moment (field-independent basis, Debye-Ang):
   XX=            -82.9800   YY=            -93.7865   ZZ=            -98.7856
   XY=              1.3921   XZ=             -4.4293   YZ=              5.7693

 Normal termination of Gaussian 16 at Tue Sep 17 12:24:30 2024.
