 Gaussian 16, Revision C.02,

 ----------------------------------------------------------------------
 #p B3LYP/6-31G(d,p) EmpiricalDispersion=GD3BJ opt freq scf(xqc,tight)
 integral(grid=ultrafine)
 ----------------------------------------------------------------------

 ----------------------------------
 opt-freq conformers_unique/conf_af
 ----------------------------------
 Symbolic Z-matrix:
 Charge =  0 Multiplicity = 1

 SCF Done:  E(RB3LYP) =  -3128.15912301     A.U. after   15 cycles
 SCF Done:  E(RB3LYP) =  -3128.16047055     A.U. after   12 cycles
 SCF Done:  E(RB3LYP) =  -3128.16035474     A.U. after   12 cycles
 SCF Done:  E(RB3LYP) =  -3128.16090902     A.U. after   12 cycles
 SCF Done:  E(RB3LYP) =  -3128.16125735     A.U. after   12 cycles
 SCF Done:  E(RB3LYP) =  -3128.16135897     A.U. after   11 cycles
 SCF Done:  E(RB3LYP) =  -3128.15903903     A.U. after   15 cycles
 SCF Done:  E(RB3LYP) =  -3128.16255206     A.U. after   13 cycles
 SCF Done:  E(RB3LYP) =  -3128.16329787     A.U. after   15 cycles
 SCF Done:  E(RB3LYP) =  -3128.16502526     A.U. after   11 cycles
 SCF Done:  E(RB3LYP) =  -3128.16559248     A.U. after   12 cycles
 SCF Done:  E(RB3LYP) =  -3128.16572498     A.U. after   11 cycles
 SCF Done:  E(RB3LYP) =  -3128.16575174     A.U. after   11 cycles
 SCF Done:  E(RB3LYP) =  -3128.16577587     A.U. after   11 cycles
 SCF Done:  E(RB3LYP) =  -3128.16578327     A.U. after    9 cycles
 SCF Done:  E(RB3LYP) =  -3128.16578705     A.U. after    9 cycles
 SCF Done:  E(RB3LYP) =  -3128.16578748     A.U. after    8 cycles
 Optimization completed.
    -- Stationary point found.
 Normal termination of Gaussian 16 at Tue Sep 17 10:02:38 2024.

 ----------------------------------------------------------------------
 #P Geom=AllCheck Guess=TCheck SCRF=Check GenChk RB3LYP/6-31G(d,p) Freq
 ----------------------------------------------------------------------

 Structure from the checkpoint file:  "smiles_00050_conf_5.chk"
 ----------------------------------
 opt-freq conformers_unique/conf_af
 ----------------------------------
 Charge =  0 Multiplicity = 1

 SCF Done:  E(RB3LYP) =  -3128.16578748     A.U. after    1 cycles

                      1                      2                      3
                      A                      A                      A
 Frequencies --     38.4691                63.5559                70.1681
 Red. masses --      4.6071                 3.5383                 4.5045
 Frc consts  --      0.0040                 0.0084                 0.0131
 IR Inten    --      2.1826                 0.2483                 0.9647

                      4                      5                      6
                      A                      A                      A
 Frequencies --     91.3085               145.4195               187.5539
 Red. masses --      3.4897                 5.2700                 4.7847
 Frc consts  --      0.0171                 0.0657                 0.0992
 IR Inten    --      1.8254                 0.3583                 0.5070

                      7                      8                      9
                      A                      A                      A
 Frequencies --    218.6247               238.6346               277.2216
 Red. masses --      4.0610                 3.2132                 1.7775
 Frc consts  --      0.1144                 0.1078                 0.0805
 IR Inten    --      4.0118                 0.9440                 0.6493

                     10                     11                     12
                      A                      A                      A
 Frequencies --    296.7428               307.6835               329.4999
 Red. masses --      8.0089                 6.0853                 5.1496
 Frc consts  --      0.4155                 0.3394                 0.3294
 IR Inten    --      2.3207                 9.9683                 0.2281

                     13                     14                     15
                      A                      A                      A
 Frequencies --    410.4522               449.1035               504.0947
 Red. masses --      5.6705                 3.4654                 5.3279
 Frc consts  --      0.5629                 0.4118                 0.7977
 IR Inten    --      8.7340                 3.1627                 1.2463

                     16                     17                     18
                      A                      A                      A
 Frequencies --    577.9181               607.1488               663.3743
 Red. masses --      1.9504                 4.7214                 6.5758
 Frc consts  --      0.3838                 1.0255                 1.7050
 IR Inten    --      0.9425                 5.5073                 5.9945

                     19                     20                     21
                      A                      A                      A
 Frequencies --    694.7499               713.1470               750.2535
 Red. masses --      3.8235                 3.5170                 2.7043
 Frc consts  --      1.0874                 1.0539                 0.8968
 IR Inten    --     13.7683                24.9460                32.0587

                     22                     23                     24
                      A                      A                      A
 Frequencies --    783.2603               822.1664               863.8046
 Red. masses --      3.6272                 1.6915                 1.8050
 Frc consts  --      1.3111                 0.6737                 0.7935
 IR Inten    --     13.5288                13.8144                 7.2504

                     25                     26                     27
                      A                      A                      A
 Frequencies --    891.0655               916.3377               925.4811
 Red. masses --      1.9502                 2.2942                 1.5900
 Frc consts  --      0.9123                 1.1350                 0.8024
 IR Inten    --      5.7867                 8.2528                 7.6731

                     28                     29                     30
                      A                      A                      A
 Frequencies --    929.6905               941.9177               957.7119
 Red. masses --      2.1931                 1.3875                 1.7687
 Frc consts  --      1.1168                 0.7253                 0.9558
 IR Inten    --      2.7818                 0.2369                 4.7845

                     31                     32                     33
                      A                      A                      A
 Frequencies --    987.4983               997.3361              1017.8459
 Red. masses --      1.8320                 1.3220                 5.6787
 Frc consts  --      1.0525                 0.7747                 3.4663
 IR Inten    --      3.0987                 0.9346                 6.7700

                     34                     35                     36
                      A                      A                      A
 Frequencies --   1046.7024              1098.3604              1122.9039
 Red. masses --      1.8686                 2.1951                 1.5419
 Frc consts  --      1.2062                 1.5602                 1.1455
 IR Inten    --      3.4313                17.2197                 8.7812

                     37                     38                     39
                      A                      A                      A
 Frequencies --   1145.0931              1174.1346              1185.4107
 Red. masses --      1.6532                 1.7454                 2.1792
 Frc consts  --      1.2772                 1.4177                 1.8042
 IR Inten    --      2.8968                 8.3057                 3.5365

                     40                     41                     42
                      A                      A                      A
 Frequencies --   1195.6398              1206.5356              1233.9988
 Red. masses --      1.1195                 1.8164                 2.3330
 Frc consts  --      0.9429                 1.5579                 2.0931
 IR Inten    --      1.8884                 0.5467                55.0597

                     43                     44                     45
                      A                      A                      A
 Frequencies --   1258.7263              1280.6989              1315.4767
 Red. masses --      1.2646                 1.3228                 1.5084
 Frc consts  --      1.1805                 1.2783                 1.5379
 IR Inten    --     19.1310                11.9767                 4.9744

                     46                     47                     48
                      A                      A                      A
 Frequencies --   1327.4533              1355.3968              1357.6457
 Red. masses --      1.3480                 3.9809                 1.3216
 Frc consts  --      1.3995                 4.3089                 1.4353
 IR Inten    --      0.3525                 0.8328                 2.4756

                     49                     50                     51
                      A                      A                      A
 Frequencies --   1376.5331              1386.5143              1433.1595
 Red. masses --      1.5182                 1.3929                 6.1285
 Frc consts  --      1.6949                 1.5777                 7.4164
 IR Inten    --      2.6919                 7.1134               447.0806

                     52                     53                     54
                      A                      A                      A
 Frequencies --   1454.1261              1504.1910              1511.4397
 Red. masses --      2.9522                 1.0911                 1.1186
 Frc consts  --      3.6779                 1.4546                 1.5055
 IR Inten    --     13.6128                 3.4817                 6.7780

                     55                     56                     57
                      A                      A                      A
 Frequencies --   1519.0552              1528.3610              1541.0297
 Red. masses --      2.3834                 1.0840                 1.1093
 Frc consts  --      3.2403                 1.4919                 1.5521
 IR Inten    --     17.7732                 0.4614                 2.7449

                     58                     59                     60
                      A                      A                      A
 Frequencies --   1621.2294              1650.5438              1732.7111
 Red. masses --      6.1286                 6.1583                12.0097
 Frc consts  --      9.4908                 9.8847                21.2439
 IR Inten    --     51.6967                 0.2625               254.8009

                     61                     62                     63
                      A                      A                      A
 Frequencies --   3021.5029              3055.3482              3058.7451
 Red. masses --      1.0714                 1.0684                 1.0663
 Frc consts  --      5.7629                 5.8761                 5.8778
 IR Inten    --     39.3656                22.7682                17.7065

                     64                     65                     66
                      A                      A                      A
 Frequencies --   3064.3160              3104.9824              3119.0680
 Red. masses --      1.0613                 1.0996                 1.0971
 Frc consts  --      5.8717                 6.2462                 6.2883
 IR Inten    --     25.1085                25.8173                21.5759

                     67                     68                     69
                      A                      A                      A
 Frequencies --   3122.7532              3128.9055              3196.8524
 Red. masses --      1.0972                 1.1046                 1.0883
 Frc consts  --      6.3036                 6.3715                 6.5533
 IR Inten    --     20.1057                37.9426                 8.7638

                     70                     71                     72
                      A                      A                      A
 Frequencies --   3222.9758              3227.7944              3232.4339
 Red. masses --      1.0924                 1.0949                 1.0912
 Frc consts  --      6.6855                 6.7209                 6.7174
 IR Inten    --      1.2041                 4.7947                 0.3581

 - Thermochemistry -
 -------------------
 Temperature   298.150 Kelvin.  Pressure   1.00000 Atm.
 Atom     1 has atomic number  8 and mass  15.99491

 Molecular mass:   253.01023 amu.
 Principal axes and moments of inertia in atomic units:
                           1         2         3
     Eigenvalues --  2062.055346857.613668384.89651
           X            0.99852  -0.05431   0.00276
           Y            0.05430   0.99852   0.00136
           Z           -0.00283  -0.00121   1.00000
 This molecule is an asymmetric top.
 Rotational symmetry number  1.
 Warning -- assumption of classical behavior for rotation
           may cause significant error
 Rotational temperatures (Kelvin)      0.04200     0.01263     0.01033
 Rotational constants (GHZ):           0.87521     0.26317     0.21524
 Zero-point vibrational energy     554995.4 (Joules/Mol)
                                  132.64709 (Kcal/Mol)
 Warning -- explicit consideration of  17 degrees of freedom as
           vibrations may cause significant error
 Vibrational temperatures:     55.35    91.44   100.96   131.37   209.23
          (Kelvin)            269.85   314.55   343.34   398.86   426.95
                              442.69   474.08   590.55   646.16   725.28
                              831.50   873.55   954.45   999.59  1026.06
                             1079.45  1126.94  1182.91  1242.82  1282.04
                             1318.41  1331.56  1337.62  1355.21  1377.93
                             1420.79  1434.94  1464.45  1505.97  1580.30
                             1615.61  1647.53  1689.32  1705.54  1720.26
                             1735.94  1775.45  1811.03  1842.64  1892.68
                             1909.91  1950.11  1953.35  1980.52  1994.88
                             2062.00  2092.16  2164.20  2174.62  2185.58
                             2198.97  2217.20  2332.59  2374.76  2492.98
                             4347.27  4395.96  4400.85  4408.87  4467.38
                             4487.64  4492.95  4501.80  4599.56  4637.14
                             4644.08  4650.75

 Zero-point correction=                           0.211387 (Hartree/Particle)
 Thermal correction to Energy=                    0.223850
 Thermal correction to Enthalpy=                  0.224795
 Thermal correction to Gibbs Free Energy=         0.170468
 Sum of electronic and zero-point Energies=          -3127.954401
 Sum of electronic and thermal Energies=             -3127.941937
 Sum of electronic and thermal Enthalpies=           -3127.940993
 Sum of electronic and thermal Free Energies=        -3127.995319

                     E (Thermal)             CV                S
                      KCal/Mol        Cal/Mol-Kelvin    Cal/Mol-Kelvin
 Total                  140.468             46.934            114.339
 Electronic               0.000              0.000              0.000
 Translational            0.889              2.981             42.485
 Rotational               0.889              2.981             33.139
 Vibrational            138.691             40.972             38.716
 Vibration     1          0.594              1.982              5.336
 Vibration     2          0.597              1.972              4.344
 Vibration     3          0.598              1.968              4.149
 Vibration     4          0.602              1.955              3.632
 Vibration     5          0.617              1.908              2.731
 Vibration     6          0.632              1.857              2.252
 Vibration     7          0.646              1.813              1.970
 Vibration     8          0.657              1.781              1.813
 Vibration     9          0.678              1.716              1.551
 Vibration    10          0.690              1.680              1.435
 Vibration    11          0.698              1.659              1.375
 Vibration    12          0.712              1.617              1.263
 Vibration    13          0.775              1.448              0.925
 Vibration    14          0.808              1.363              0.798
 Vibration    15          0.859              1.241              0.648
 Vibration    16          0.934              1.079              0.489
 Vibration    17          0.966              1.017              0.438

                           ! Non-Optimized Parameters !
 Normal termination of Gaussian 16 at Tue Sep 17 10:05:02 2024.

 ----------------------------------------------------------------------
 #p M062X/def2tzvp geom=check guess=read scf(xqc,tight) integral(grid=u
 ltrafine) scrf(SMD, solvent=1,4-Dioxane) polar prop=efg volume
 ----------------------------------------------------------------------

 ---
 spe
 ---
 Structure from the checkpoint file:  "smiles_00050_conf_5.chk"
 Charge =  0 Multiplicity = 1

 SCF Done:  E(RM062X) =  -3130.56600797     A.U. after   12 cycles

  Exact polarizability:     219.148       3.716     193.239      10.072      -8.125     121.306
 Approx polarizability:     214.466      13.408     216.494      11.280     -11.482     146.272

 Normal termination of Gaussian 16 at Tue Sep 17 11:14:14 2024.
 Gaussian 16:  ES64L-G16RevC.02  7-Dec-2021

 ----------------------------------------------------------------------
 #p M062X/def2tzvp geom=check guess=read scf(xqc,tight) integral(grid=u
 ltrafine) scrf(SMD, solvent=1,4-Dioxane) nmr=giao
 ----------------------------------------------------------------------

 ---
 spe
 ---
 Structure from the checkpoint file:  "smiles_00050_conf_5.chk"
 Charge =  0 Multiplicity = 1

                         Standard orientation:
 ---------------------------------------------------------------------
 Center     Atomic      Atomic             Coordinates (Angstroms)
 Number     Number       Type             X           Y           Z
 ---------------------------------------------------------------------
      1          8           0        2.296405    2.089997    0.915007
      2          6           0        1.731515    1.101816    0.446540
      3          6           0        0.278349    1.169648    0.066971
      4          6           0       -0.202577    2.386433   -0.431027
      5          6           0       -1.547325    2.526088   -0.761135
      6          6           0       -2.436290    1.465409   -0.576226
      7          6           0       -1.951528    0.269751   -0.053466
      8         35           0       -3.158876   -1.185745    0.232890
      9          6           0       -0.607726    0.105875    0.268454
     10          7           0        2.396763   -0.078569    0.269831
     11          6           0        3.829973   -0.114207    0.612046
     12          6           0        4.308984   -1.456590    0.047558
     13          6           0        3.378353   -1.682230   -1.152888
     14          6           0        2.025915   -1.187311   -0.626347
     15          1           0        0.493060    3.210221   -0.540538
     16          1           0       -1.915073    3.466567   -1.159037
     17          1           0       -3.486315    1.565284   -0.824269
     18          1           0       -0.267996   -0.830359    0.691847
     19          1           0        4.335514    0.738577    0.144795
     20          1           0        3.967858   -0.017982    1.692224
     21          1           0        4.165969   -2.253222    0.786202
     22          1           0        5.367365   -1.437332   -0.222649
     23          1           0        3.339525   -2.721779   -1.487741
     24          1           0        3.696529   -1.062982   -1.998862
     25          1           0        1.351122   -0.846373   -1.413519
     26          1           0        1.518664   -1.987617   -0.071342
 ---------------------------------------------------------------------

 SCF Done:  E(RM062X) =  -3130.56600797     A.U. after    1 cycles

      1  O    Isotropic =  -143.7990   Anisotropy =   681.6773

      2  C    Isotropic =    -3.8513   Anisotropy =   132.3861

      3  C    Isotropic =    22.7147   Anisotropy =   200.1454

      4  C    Isotropic =    33.1181   Anisotropy =   223.2765

      5  C    Isotropic =    32.9170   Anisotropy =   214.2419

      6  C    Isotropic =    28.8328   Anisotropy =   190.1333

      7  C    Isotropic =    26.5398   Anisotropy =   139.4482

      8  Br   Isotropic =  2076.1043   Anisotropy =  1311.8659

      9  C    Isotropic =    31.9141   Anisotropy =   184.3972

     10  N    Isotropic =   103.6635   Anisotropy =   181.8433

     11  C    Isotropic =   134.5285   Anisotropy =    41.8842

     12  C    Isotropic =   158.3092   Anisotropy =    20.1675

     13  C    Isotropic =   155.8282   Anisotropy =    18.9897

     14  C    Isotropic =   130.9098   Anisotropy =    39.5237

     15  H    Isotropic =    23.1704   Anisotropy =     8.5626

     16  H    Isotropic =    23.6069   Anisotropy =     5.8796

     17  H    Isotropic =    23.5656   Anisotropy =    10.2175

     18  H    Isotropic =    23.3754   Anisotropy =    14.3759

     19  H    Isotropic =    28.2109   Anisotropy =     8.5549

     20  H    Isotropic =    28.3513   Anisotropy =     8.1984

     21  H    Isotropic =    29.9399   Anisotropy =     9.9396

     22  H    Isotropic =    29.8449   Anisotropy =    11.0073

     23  H    Isotropic =    29.9762   Anisotropy =    10.7635

     24  H    Isotropic =    30.1723   Anisotropy =     9.4240

     25  H    Isotropic =    28.2814   Anisotropy =     7.0596

     26  H    Isotropic =    28.1894   Anisotropy =     9.1463

 The electronic state is 1-A.
 Alpha  occ. eigenvalues -- -485.37870 -63.36348 -57.18293 -57.18057 -57.18051
 Alpha  occ. eigenvalues --  -19.59036 -14.77448 -10.64385 -10.60896 -10.57607
 Alpha  occ. eigenvalues --  -10.56680 -10.56564 -10.56474 -10.56228 -10.55729
 Alpha  occ. eigenvalues --  -10.55427 -10.54108 -10.53901  -9.02990  -6.85397
 Alpha  occ. eigenvalues --   -6.84522  -6.84503  -2.88773  -2.88456  -2.88434
 Alpha  occ. eigenvalues --   -2.87618  -2.87618  -1.15709  -1.04995  -0.98665
 Alpha  occ. eigenvalues --   -0.90735  -0.89264  -0.86497  -0.83181  -0.82247
 Alpha  occ. eigenvalues --   -0.75012  -0.70800  -0.69155  -0.67072  -0.62848
 Alpha  occ. eigenvalues --   -0.60599  -0.58036  -0.57203  -0.54509  -0.52363
 Alpha  occ. eigenvalues --   -0.51694  -0.49909  -0.49580  -0.48466  -0.47347
 Alpha  occ. eigenvalues --   -0.46786  -0.46332  -0.43787  -0.42655  -0.41405
 Alpha  occ. eigenvalues --   -0.41246  -0.40836  -0.39505  -0.38123  -0.35663
 Alpha  occ. eigenvalues --   -0.33660  -0.32142  -0.30286  -0.30123
 Alpha virt. eigenvalues --   -0.01491   0.00527   0.03238   0.06077   0.07558
 Alpha virt. eigenvalues --    0.09647   0.09987   0.10624   0.11320   0.12218
 Alpha virt. eigenvalues --    0.12582   0.13156   0.13765   0.14371   0.15445

 Mulliken charges:
               1
     1  O   -0.423275
     2  C    0.278690
     3  C    0.078656
     4  C   -0.201248
     5  C   -0.143542
     6  C   -0.167198
     7  C    0.071733
     8  Br  -0.111904
     9  C   -0.240301
    10  N   -0.148126
    11  C   -0.193924
    12  C   -0.293506
    13  C   -0.281845
    14  C   -0.249414
    15  H    0.180608
    16  H    0.169595
    17  H    0.181530
    18  H    0.208617
    19  H    0.162428
    20  H    0.156774
    21  H    0.154927
    22  H    0.155182
    23  H    0.156116
    24  H    0.156825
    25  H    0.187067
    26  H    0.155533
 Sum of Mulliken charges =  -0.00000

 Dipole moment (field-independent basis, Debye):
    X=              0.8671    Y=             -2.4381    Z=             -2.4660  Tot=              3.5745
 Quadrupole moment (field-independent basis, Debye-Ang):
   XX=            -90.1062   YY=            -95.0874   ZZ=            -97.4769
   XY=            -15.6058   XZ=             -2.4502   YZ=             -6.5713

 Normal termination of Gaussian 16 at Tue Sep 17 11:39:23 2024.
