 Gaussian 16, Revision C.02,

 ----------------------------------------------------------------------
 #p B3LYP/6-31G(d,p) EmpiricalDispersion=GD3BJ opt freq scf(xqc,tight)
 integral(grid=ultrafine)
 ----------------------------------------------------------------------

 ----------------------------------
 opt-freq conformers_unique/conf_aa
 ----------------------------------
 Symbolic Z-matrix:
 Charge =  0 Multiplicity = 1

 SCF Done:  E(RB3LYP) =  -2950.98877276     A.U. after   14 cycles
 SCF Done:  E(RB3LYP) =  -2950.99035013     A.U. after   12 cycles
 SCF Done:  E(RB3LYP) =  -2950.99046272     A.U. after    9 cycles
 SCF Done:  E(RB3LYP) =  -2950.99047965     A.U. after    9 cycles
 SCF Done:  E(RB3LYP) =  -2950.99048061     A.U. after    8 cycles
 Optimization completed.
    -- Stationary point found.
 Normal termination of Gaussian 16 at Tue Sep 17 09:49:33 2024.

 ----------------------------------------------------------------------
 #P Geom=AllCheck Guess=TCheck SCRF=Check GenChk RB3LYP/6-31G(d,p) Freq
 ----------------------------------------------------------------------

 Structure from the checkpoint file:  "smiles_00009_conf_0.chk"
 ----------------------------------
 opt-freq conformers_unique/conf_aa
 ----------------------------------
 Charge =  0 Multiplicity = 1

 SCF Done:  E(RB3LYP) =  -2950.99048061     A.U. after    1 cycles

                      1                      2                      3
                      A                      A                      A
 Frequencies --    108.6473               198.7765               239.7097
 Red. masses --      7.4139                 7.9103                 4.7861
 Frc consts  --      0.0516                 0.1842                 0.1620
 IR Inten    --      0.1595                 0.2452                 0.1858

                      4                      5                      6
                      A                      A                      A
 Frequencies --    282.0161               305.7252               422.5597
 Red. masses --     13.6969                 6.2725                 1.3709
 Frc consts  --      0.6418                 0.3454                 0.1442
 IR Inten    --      1.7379                 3.0807                74.5866

                      7                      8                      9
                      A                      A                      A
 Frequencies --    428.3770               436.5331               580.4820
 Red. masses --      4.3270                 2.9030                 6.9741
 Frc consts  --      0.4678                 0.3259                 1.3846
 IR Inten    --      2.9775                 1.6614                 5.0665

                     10                     11                     12
                      A                      A                      A
 Frequencies --    616.6002               668.2013               689.7410
 Red. masses --      3.9278                 3.3809                 7.4719
 Frc consts  --      0.8798                 0.8894                 2.0944
 IR Inten    --      1.7526                33.5925                 4.8012

                     13                     14                     15
                      A                      A                      A
 Frequencies --    765.1227               803.6753               819.4933
 Red. masses --      3.1333                 5.6913                 1.3366
 Frc consts  --      1.0807                 2.1658                 0.5289
 IR Inten    --      1.9970                 7.3892                10.3797

                     16                     17                     18
                      A                      A                      A
 Frequencies --    869.5560               871.1442               919.2002
 Red. masses --      1.3695                 1.5764                 6.0052
 Frc consts  --      0.6101                 0.7049                 2.9895
 IR Inten    --     40.6450                 0.6709                65.6443

                     19                     20                     21
                      A                      A                      A
 Frequencies --    957.6274               968.2123              1073.4365
 Red. masses --      3.7089                 1.3112                 2.1594
 Frc consts  --      2.0040                 0.7242                 1.4660
 IR Inten    --     40.8343                 0.0085                13.7039

                     22                     23                     24
                      A                      A                      A
 Frequencies --   1109.5222              1159.8792              1232.3920
 Red. masses --      3.9266                 1.3916                 1.6387
 Frc consts  --      2.8480                 1.1031                 1.4664
 IR Inten    --     16.8125                 3.7019                 5.6695

                     25                     26                     27
                      A                      A                      A
 Frequencies --   1263.5628              1284.3879              1346.9480
 Red. masses --      1.3731                 3.7477                 2.6523
 Frc consts  --      1.2917                 3.6425                 2.8352
 IR Inten    --     17.4966                 2.8328                 2.9151

                     28                     29                     30
                      A                      A                      A
 Frequencies --   1380.1487              1398.7670              1465.8056
 Red. masses --      2.2448                 4.8120                 3.3017
 Frc consts  --      2.5193                 5.5471                 4.1797
 IR Inten    --     24.1968                 2.9174                 9.0161

                     31                     32                     33
                      A                      A                      A
 Frequencies --   1524.7138              1530.5067              1626.3333
 Red. masses --      2.6415                 5.2906                 6.0612
 Frc consts  --      3.6180                 7.3017                 9.4456
 IR Inten    --     17.3121                10.0783                 5.1682

                     34                     35                     36
                      A                      A                      A
 Frequencies --   1670.5112              3200.9271              3224.7667
 Red. masses --      6.9555                 1.0896                 1.0925
 Frc consts  --     11.4361                 6.5773                 6.6935
 IR Inten    --     63.4999                 5.7852                 0.6248

                     37                     38                     39
                      A                      A                      A
 Frequencies --   3228.7412              3257.4520              3692.7574
 Red. masses --      1.0941                 1.0963                 1.0812
 Frc consts  --      6.7202                 6.8538                 8.6867
 IR Inten    --      2.6853                 5.8886                87.5576

 - Thermochemistry -
 -------------------
 Temperature   298.150 Kelvin.  Pressure   1.00000 Atm.
 Atom     1 has atomic number 35 and mass  78.91834

 Molecular mass:   195.96361 amu.
 Principal axes and moments of inertia in atomic units:
                           1         2         3
     Eigenvalues --   542.475633904.022414446.49803
           X            0.99999  -0.00321   0.00005
           Y            0.00321   0.99999   0.00004
           Z           -0.00005  -0.00004   1.00000
 This molecule is an asymmetric top.
 Rotational symmetry number  1.
 Warning -- assumption of classical behavior for rotation
           may cause significant error
 Rotational temperatures (Kelvin)      0.15966     0.02219     0.01948
 Rotational constants (GHZ):           3.32686     0.46228     0.40588
 Zero-point vibrational energy     284848.6 (Joules/Mol)
                                   68.08044 (Kcal/Mol)
 Warning -- explicit consideration of  10 degrees of freedom as
           vibrations may cause significant error
 Vibrational temperatures:    156.32   286.00   344.89   405.76   439.87
          (Kelvin)            607.97   616.34   628.07   835.18   887.15
                              961.39   992.38  1100.84  1156.31  1179.07
                             1251.10  1253.38  1322.52  1377.81  1393.04
                             1544.44  1596.35  1668.81  1773.14  1817.98
                             1847.95  1937.96  1985.73  2012.51  2108.97
                             2193.72  2202.06  2339.93  2403.49  4605.42
                             4639.72  4645.44  4686.75  5313.05

 Zero-point correction=                           0.108493 (Hartree/Particle)
 Thermal correction to Energy=                    0.116026
 Thermal correction to Enthalpy=                  0.116970
 Thermal correction to Gibbs Free Energy=         0.075003
 Sum of electronic and zero-point Energies=          -2950.881988
 Sum of electronic and thermal Energies=             -2950.874455
 Sum of electronic and thermal Enthalpies=           -2950.873511
 Sum of electronic and thermal Free Energies=        -2950.915478

                     E (Thermal)             CV                S
                      KCal/Mol        Cal/Mol-Kelvin    Cal/Mol-Kelvin
 Total                   72.807             29.268             88.327
 Electronic               0.000              0.000              0.000
 Translational            0.889              2.981             41.723
 Rotational               0.889              2.981             30.622
 Vibrational             71.030             23.306             15.982
 Vibration     1          0.606              1.942              3.293
 Vibration     2          0.637              1.842              2.144
 Vibration     3          0.657              1.780              1.805
 Vibration     4          0.681              1.707              1.521
 Vibration     5          0.696              1.663              1.385
 Vibration     6          0.785              1.421              0.883
 Vibration     7          0.790              1.408              0.864
 Vibration     8          0.797              1.391              0.838
 Vibration     9          0.937              1.074              0.484
 Vibration    10          0.976              0.997              0.422

 Optimization completed.
    -- Stationary point found.
 Normal termination of Gaussian 16 at Tue Sep 17 09:50:28 2024.

 ----------------------------------------------------------------------
 #p M062X/def2tzvp geom=check guess=read scf(xqc,tight) integral(grid=u
 ltrafine) scrf(SMD, solvent=1,4-Dioxane) polar prop=efg volume
 ----------------------------------------------------------------------

 ---
 spe
 ---
 Structure from the checkpoint file:  "smiles_00009_conf_0.chk"
 Charge =  0 Multiplicity = 1

 SCF Done:  E(RM062X) =  -2953.43205192     A.U. after   13 cycles

  Exact polarizability:     195.481      -2.822     131.943      -0.006      -0.002      68.936
 Approx polarizability:     202.092      -5.308     161.989      -0.007      -0.001      86.622

 Normal termination of Gaussian 16 at Tue Sep 17 10:17:18 2024.
 Gaussian 16:  ES64L-G16RevC.02  7-Dec-2021

 ----------------------------------------------------------------------
 #p M062X/def2tzvp geom=check guess=read scf(xqc,tight) integral(grid=u
 ltrafine) scrf(SMD, solvent=1,4-Dioxane) nmr=giao
 ----------------------------------------------------------------------

 ---
 spe
 ---
 Structure from the checkpoint file:  "smiles_00009_conf_0.chk"
 Charge =  0 Multiplicity = 1

                         Standard orientation:
 ---------------------------------------------------------------------
 Center     Atomic      Atomic             Coordinates (Angstroms)
 Number     Number       Type             X           Y           Z
 ---------------------------------------------------------------------
      1         35           0       -2.638799   -0.206368    0.000150
      2          6           0       -0.759060    0.142716    0.000021
      3          6           0       -0.332368    1.488933   -0.000096
      4          6           0        1.019117    1.787735   -0.000177
      5          6           0        1.948444    0.733392   -0.000119
      6          6           0        3.372321    0.610367   -0.000004
      7          7           0        3.751233   -0.655324   -0.000363
      8          7           0        2.602285   -1.386620   -0.000073
      9          6           0        1.480772   -0.606617   -0.000021
     10          6           0        0.115895   -0.928980    0.000061
     11          1           0       -1.075139    2.276974   -0.000094
     12          1           0        1.350418    2.821149   -0.000213
     13          1           0        4.116214    1.394890    0.000015
     14          1           0        2.665026   -2.391301   -0.000030
     15          1           0       -0.243888   -1.950489    0.000139
 ---------------------------------------------------------------------

 SCF Done:  E(RM062X) =  -2953.43205192     A.U. after    1 cycles

      1  Br   Isotropic =  2077.6481   Anisotropy =  1301.9138

      2  C    Isotropic =    25.7856   Anisotropy =   142.9971

      3  C    Isotropic =    40.9495   Anisotropy =   168.3419

      4  C    Isotropic =    42.1126   Anisotropy =   200.6057

      5  C    Isotropic =    43.2161   Anisotropy =   183.5906

      6  C    Isotropic =    29.7299   Anisotropy =   151.7461

      7  N    Isotropic =  -132.2571   Anisotropy =   441.8634

      8  N    Isotropic =    46.9607   Anisotropy =   111.5489

      9  C    Isotropic =    24.9069   Anisotropy =   181.9136

     10  C    Isotropic =    55.0760   Anisotropy =   151.2473

     11  H    Isotropic =    23.8499   Anisotropy =    10.5855

     12  H    Isotropic =    23.3104   Anisotropy =     6.9070

     13  H    Isotropic =    23.0080   Anisotropy =     5.2915

     14  H    Isotropic =    21.6594   Anisotropy =     5.3571

     15  H    Isotropic =    23.5616   Anisotropy =    11.2203

 The electronic state is 1-A.
 Alpha  occ. eigenvalues -- -485.37788 -63.36267 -57.18212 -57.17976 -57.17969
 Alpha  occ. eigenvalues --  -14.82361 -14.79159 -10.61106 -10.59697 -10.57188
 Alpha  occ. eigenvalues --  -10.56582 -10.56293 -10.55554 -10.55545  -9.02911
 Alpha  occ. eigenvalues --   -6.85318  -6.84444  -6.84422  -2.88694  -2.88378
 Alpha  occ. eigenvalues --   -2.88353  -2.87538  -2.87538  -1.16528  -0.98301
 Alpha  occ. eigenvalues --   -0.93549  -0.90558  -0.85570  -0.82892  -0.73085
 Alpha  occ. eigenvalues --   -0.69652  -0.68677  -0.62732  -0.58073  -0.54085
 Alpha  occ. eigenvalues --   -0.53534  -0.52483  -0.51797  -0.48796  -0.45015
 Alpha  occ. eigenvalues --   -0.44010  -0.41652  -0.37988  -0.37875  -0.35952
 Alpha  occ. eigenvalues --   -0.35388  -0.29705  -0.28403
 Alpha virt. eigenvalues --   -0.01611   0.02969   0.03333   0.07210   0.07400
 Alpha virt. eigenvalues --    0.10167   0.10672   0.12675   0.13117   0.13689
 Alpha virt. eigenvalues --    0.16668   0.17967   0.18223   0.19218   0.21750

 Mulliken charges:
               1
     1  Br  -0.112322
     2  C    0.082004
     3  C   -0.169272
     4  C   -0.222183
     5  C    0.076434
     6  C   -0.131173
     7  N   -0.199370
     8  N   -0.168080
     9  C    0.146825
    10  C   -0.286480
    11  H    0.178563
    12  H    0.167528
    13  H    0.167256
    14  H    0.280614
    15  H    0.189656
 Sum of Mulliken charges =  -0.00000

 Dipole moment (field-independent basis, Debye):
    X=              0.3330    Y=             -0.2640    Z=              0.0005  Tot=              0.4249
 Quadrupole moment (field-independent basis, Debye-Ang):
   XX=            -79.4659   YY=            -56.6339   ZZ=            -74.0794
   XY=              1.2393   XZ=              0.0022   YZ=             -0.0008

 Normal termination of Gaussian 16 at Tue Sep 17 10:26:55 2024.
