 Gaussian 16, Revision C.02,

 ----------------------------------------------------------------------
 #p B3LYP/6-31G(d,p) EmpiricalDispersion=GD3BJ opt freq scf(xqc,tight)
 integral(grid=ultrafine)
 ----------------------------------------------------------------------

 ----------------------------------
 opt-freq conformers_unique/conf_ab
 ----------------------------------
 Symbolic Z-matrix:
 Charge =  0 Multiplicity = 1

 SCF Done:  E(RB3LYP) =  -2917.91619889     A.U. after   14 cycles
 SCF Done:  E(RB3LYP) =  -2917.91695061     A.U. after   11 cycles
 SCF Done:  E(RB3LYP) =  -2917.91697739     A.U. after   10 cycles
 SCF Done:  E(RB3LYP) =  -2917.91698076     A.U. after    8 cycles
 Optimization completed.
    -- Stationary point found.
 Normal termination of Gaussian 16 at Tue Sep 17 09:50:25 2024.

 ----------------------------------------------------------------------
 #P Geom=AllCheck Guess=TCheck SCRF=Check GenChk RB3LYP/6-31G(d,p) Freq
 ----------------------------------------------------------------------

 Structure from the checkpoint file:  "smiles_00093_conf_1.chk"
 ----------------------------------
 opt-freq conformers_unique/conf_ab
 ----------------------------------
 Charge =  0 Multiplicity = 1

 SCF Done:  E(RB3LYP) =  -2917.91698076     A.U. after    1 cycles

                      1                      2                      3
                      A                      A                      A
 Frequencies --     77.9301               173.2016               177.8612
 Red. masses --      3.2645                 6.2483                 4.3062
 Frc consts  --      0.0117                 0.1104                 0.0803
 IR Inten    --      4.0581                 0.3496                 0.0533

                      4                      5                      6
                      A                      A                      A
 Frequencies --    215.7323               280.8910               281.4642
 Red. masses --      1.9925                 4.5761                 1.5558
 Frc consts  --      0.0546                 0.2127                 0.0726
 IR Inten    --      0.4332                 2.8941                 0.6275

                      7                      8                      9
                      A                      A                      A
 Frequencies --    318.5077               454.9171               464.8555
 Red. masses --      5.4915                 3.1572                 5.1660
 Frc consts  --      0.3282                 0.3850                 0.6577
 IR Inten    --      1.7838                 2.3364                 1.2036

                     10                     11                     12
                      A                      A                      A
 Frequencies --    576.2777               585.6139               678.5251
 Red. masses --      4.7914                 4.9628                 7.2196
 Frc consts  --      0.9375                 1.0028                 1.9584
 IR Inten    --      8.2460                 0.3128                 7.6307

                     13                     14                     15
                      A                      A                      A
 Frequencies --    697.9411               782.9425               846.0638
 Red. masses --      2.3556                 1.4065                 6.1366
 Frc consts  --      0.6761                 0.5080                 2.5881
 IR Inten    --      7.5172                37.4622                44.2758

                     16                     17                     18
                      A                      A                      A
 Frequencies --    880.9745               889.4399               972.3945
 Red. masses --      1.3586                 1.4880                 1.2803
 Frc consts  --      0.6212                 0.6936                 0.7132
 IR Inten    --      0.1268                19.7440                 0.2866

                     19                     20                     21
                      A                      A                      A
 Frequencies --   1009.7709              1082.5512              1092.4166
 Red. masses --      5.3463                 8.2666                 1.8468
 Frc consts  --      3.2118                 5.7079                 1.2985
 IR Inten    --      9.7514               134.9187                 0.5258

                     22                     23                     24
                      A                      A                      A
 Frequencies --   1124.4456              1179.8377              1199.2926
 Red. masses --      1.5244                 1.2732                 1.1144
 Frc consts  --      1.1356                 1.0443                 0.9444
 IR Inten    --      3.7015                 0.7134                 4.6602

                     25                     26                     27
                      A                      A                      A
 Frequencies --   1213.9816              1279.1066              1325.6178
 Red. masses --      1.3784                 2.5690                 1.7733
 Frc consts  --      1.1968                 2.4764                 1.8360
 IR Inten    --      1.0282                88.5215               105.3988

                     28                     29                     30
                      A                      A                      A
 Frequencies --   1365.5667              1477.1836              1486.2214
 Red. masses --      5.7833                 2.3216                 1.4050
 Frc consts  --      6.3540                 2.9847                 1.8284
 IR Inten    --     21.1378                32.2699                22.1058

                     31                     32                     33
                      A                      A                      A
 Frequencies --   1505.3991              1519.8393              1526.3376
 Red. masses --      1.0462                 1.1468                 1.9577
 Frc consts  --      1.3969                 1.5607                 2.6872
 IR Inten    --      5.7867                69.3518                47.6937

                     34                     35                     36
                      A                      A                      A
 Frequencies --   1630.3294              1653.5276              3018.6031
 Red. masses --      6.3171                 6.0669                 1.0348
 Frc consts  --      9.8928                 9.7732                 5.5553
 IR Inten    --     42.5891               164.9402                52.2769

                     37                     38                     39
                      A                      A                      A
 Frequencies --   3081.4159              3155.4503              3193.5744
 Red. masses --      1.1062                 1.1001                 1.0887
 Frc consts  --      6.1886                 6.4538                 6.5418
 IR Inten    --     40.0332                22.4356                10.0758

                     40                     41                     42
                      A                      A                      A
 Frequencies --   3230.3337              3234.4122              3234.8073
 Red. masses --      1.0922                 1.0926                 1.0930
 Frc consts  --      6.7149                 6.7342                 6.7388
 IR Inten    --      3.3053                 1.6070                 5.4165

 - Thermochemistry -
 -------------------
 Temperature   298.150 Kelvin.  Pressure   1.00000 Atm.
 Atom     1 has atomic number  6 and mass  12.00000

 Molecular mass:   185.96803 amu.
 Principal axes and moments of inertia in atomic units:
                           1         2         3
     Eigenvalues --   614.469303380.079893983.04826
           X            0.99988   0.01547   0.00000
           Y           -0.01547   0.99988  -0.00004
           Z           -0.00000   0.00004   1.00000
 This molecule is an asymmetric top.
 Rotational symmetry number  1.
 Warning -- assumption of classical behavior for rotation
           may cause significant error
 Rotational temperatures (Kelvin)      0.14096     0.02562     0.02175
 Rotational constants (GHZ):           2.93707     0.53393     0.45311
 Zero-point vibrational energy     324041.8 (Joules/Mol)
                                   77.44785 (Kcal/Mol)
 Warning -- explicit consideration of  11 degrees of freedom as
           vibrations may cause significant error
 Vibrational temperatures:    112.12   249.20   255.90   310.39   404.14
          (Kelvin)            404.96   458.26   654.52   668.82   829.14
                              842.57   976.25  1004.18  1126.48  1217.30
                             1267.53  1279.71  1399.06  1452.84  1557.55
                             1571.74  1617.83  1697.52  1725.51  1746.65
                             1840.35  1907.27  1964.75  2125.34  2138.34
                             2165.93  2186.71  2196.06  2345.68  2379.06
                             4343.10  4433.47  4539.99  4594.84  4647.73
                             4653.60  4654.17

 Zero-point correction=                           0.123421 (Hartree/Particle)
 Thermal correction to Energy=                    0.131668
 Thermal correction to Enthalpy=                  0.132613
 Thermal correction to Gibbs Free Energy=         0.089088
 Sum of electronic and zero-point Energies=          -2917.793560
 Sum of electronic and thermal Energies=             -2917.785312
 Sum of electronic and thermal Enthalpies=           -2917.784368
 Sum of electronic and thermal Free Energies=        -2917.827893

                     E (Thermal)             CV                S
                      KCal/Mol        Cal/Mol-Kelvin    Cal/Mol-Kelvin
 Total                   82.623             30.481             91.605
 Electronic               0.000              0.000              0.000
 Translational            0.889              2.981             41.567
 Rotational               0.889              2.981             30.493
 Vibrational             80.846             24.519             19.545
 Vibration     1          0.599              1.964              3.942
 Vibration     2          0.627              1.875              2.400
 Vibration     3          0.628              1.870              2.351
 Vibration     4          0.645              1.817              1.995
 Vibration     5          0.681              1.709              1.528
 Vibration     6          0.681              1.708              1.525
 Vibration     7          0.705              1.638              1.318
 Vibration     8          0.813              1.350              0.781
 Vibration     9          0.822              1.328              0.752
 Vibration    10          0.933              1.083              0.492
 Vibration    11          0.943              1.062              0.475

 Optimization completed.
    -- Stationary point found.
 Normal termination of Gaussian 16 at Tue Sep 17 09:51:18 2024.

 ----------------------------------------------------------------------
 #p M062X/def2tzvp geom=check guess=read scf(xqc,tight) integral(grid=u
 ltrafine) scrf(SMD, solvent=1,4-Dioxane) polar prop=efg volume
 ----------------------------------------------------------------------

 ---
 spe
 ---
 Structure from the checkpoint file:  "smiles_00093_conf_1.chk"
 Charge =  0 Multiplicity = 1

 SCF Done:  E(RM062X) =  -2920.35478941     A.U. after   12 cycles

  Exact polarizability:     168.182      -1.861     122.985      -0.001       0.002      70.824
 Approx polarizability:     167.032      -2.237     143.899      -0.001       0.002      86.358

 Normal termination of Gaussian 16 at Tue Sep 17 10:09:05 2024.
 Gaussian 16:  ES64L-G16RevC.02  7-Dec-2021

 ----------------------------------------------------------------------
 #p M062X/def2tzvp geom=check guess=read scf(xqc,tight) integral(grid=u
 ltrafine) scrf(SMD, solvent=1,4-Dioxane) nmr=giao
 ----------------------------------------------------------------------

 ---
 spe
 ---
 Structure from the checkpoint file:  "smiles_00093_conf_1.chk"
 Charge =  0 Multiplicity = 1

                         Standard orientation:
 ---------------------------------------------------------------------
 Center     Atomic      Atomic             Coordinates (Angstroms)
 Number     Number       Type             X           Y           Z
 ---------------------------------------------------------------------
      1          6           0       -4.030188   -0.795049   -0.000101
      2          8           0       -2.669332   -1.196710    0.000017
      3          6           0       -1.716958   -0.223456    0.000028
      4          6           0       -1.983270    1.150408    0.000080
      5          6           0       -0.917076    2.052742    0.000094
      6          6           0        0.404143    1.616300    0.000063
      7          6           0        0.640229    0.240918    0.000014
      8         35           0        2.445464   -0.389971   -0.000030
      9          6           0       -0.392152   -0.683794   -0.000006
     10          1           0       -4.277167   -0.208615    0.893712
     11          1           0       -4.614727   -1.715427   -0.000204
     12          1           0       -4.276985   -0.208528   -0.893907
     13          1           0       -2.999758    1.521849    0.000115
     14          1           0       -1.125514    3.118178    0.000132
     15          1           0        1.230178    2.316131    0.000074
     16          1           0       -0.200982   -1.749334   -0.000045
 ---------------------------------------------------------------------

 SCF Done:  E(RM062X) =  -2920.35478941     A.U. after    1 cycles

      1  C    Isotropic =   129.5539   Anisotropy =    74.1985

      2  O    Isotropic =   221.7516   Anisotropy =    93.1391

      3  C    Isotropic =     1.7661   Anisotropy =   164.4503

      4  C    Isotropic =    58.5882   Anisotropy =   186.2287

      5  C    Isotropic =    33.2010   Anisotropy =   214.9577

      6  C    Isotropic =    41.1615   Anisotropy =   171.5905

      7  C    Isotropic =    23.5194   Anisotropy =   145.3425

      8  Br   Isotropic =  2076.1216   Anisotropy =  1308.5059

      9  C    Isotropic =    44.4407   Anisotropy =   148.7108

     10  H    Isotropic =    28.2243   Anisotropy =     8.2295

     11  H    Isotropic =    27.8109   Anisotropy =     8.3799

     12  H    Isotropic =    28.2245   Anisotropy =     8.2292

     13  H    Isotropic =    24.3905   Anisotropy =     8.0956

     14  H    Isotropic =    23.7584   Anisotropy =     6.0208

     15  H    Isotropic =    24.0799   Anisotropy =     9.7243

     16  H    Isotropic =    24.0640   Anisotropy =    11.3589

 The electronic state is 1-A.
 Alpha  occ. eigenvalues -- -485.37349 -63.35831 -57.17775 -57.17540 -57.17534
 Alpha  occ. eigenvalues --  -19.66274 -10.61543 -10.60475 -10.58975 -10.55557
 Alpha  occ. eigenvalues --  -10.55087 -10.54863 -10.54851  -9.02476  -6.84880
 Alpha  occ. eigenvalues --   -6.84011  -6.83989  -2.88257  -2.87943  -2.87916
 Alpha  occ. eigenvalues --   -2.87107  -2.87107  -1.19693  -0.97739  -0.89761
 Alpha  occ. eigenvalues --   -0.86397  -0.81709  -0.79299  -0.70172  -0.67060
 Alpha  occ. eigenvalues --   -0.61075  -0.56771  -0.56632  -0.55300  -0.51105
 Alpha  occ. eigenvalues --   -0.49406  -0.48507  -0.46578  -0.44461  -0.42502
 Alpha  occ. eigenvalues --   -0.41148  -0.39792  -0.36966  -0.35018  -0.30386
 Alpha  occ. eigenvalues --   -0.28602
 Alpha virt. eigenvalues --    0.00854   0.02422   0.03682   0.07881   0.10191
 Alpha virt. eigenvalues --    0.11174   0.12371   0.13551   0.14019   0.15240
 Alpha virt. eigenvalues --    0.15976   0.16687   0.17956   0.19663   0.22533

 Mulliken charges:
               1
     1  C   -0.309722
     2  O   -0.282984
     3  C    0.296172
     4  C   -0.266550
     5  C   -0.153785
     6  C   -0.201363
     7  C    0.077480
     8  Br  -0.116185
     9  C   -0.240099
    10  H    0.160469
    11  H    0.165335
    12  H    0.160471
    13  H    0.180688
    14  H    0.167514
    15  H    0.176613
    16  H    0.185946
 Sum of Mulliken charges =   0.00000

 Dipole moment (field-independent basis, Debye):
    X=             -3.5168    Y=              1.3847    Z=             -0.0001  Tot=              3.7796
 Quadrupole moment (field-independent basis, Debye-Ang):
   XX=            -53.7164   YY=            -61.3735   ZZ=            -69.1320
   XY=             -0.7863   XZ=              0.0005   YZ=              0.0005

 Normal termination of Gaussian 16 at Tue Sep 17 10:15:18 2024.
