 Gaussian 16, Revision C.02,

 ----------------------------------------------------------------------
 #p B3LYP/6-31G(d,p) EmpiricalDispersion=GD3BJ opt freq scf(xqc,tight)
 integral(grid=ultrafine)
 ----------------------------------------------------------------------

 ----------------------------------
 opt-freq conformers_unique/conf_aa
 ----------------------------------
 Symbolic Z-matrix:
 Charge =  0 Multiplicity = 1

 SCF Done:  E(RB3LYP) =  -747.234808656     A.U. after   14 cycles
 SCF Done:  E(RB3LYP) =  -747.236448548     A.U. after   11 cycles
 SCF Done:  E(RB3LYP) =  -747.236570172     A.U. after   10 cycles
 SCF Done:  E(RB3LYP) =  -747.236587589     A.U. after    9 cycles
 SCF Done:  E(RB3LYP) =  -747.236588483     A.U. after    8 cycles
 Optimization completed.
    -- Stationary point found.
 Normal termination of Gaussian 16 at Tue Sep 17 09:56:55 2024.

 ----------------------------------------------------------------------
 #P Geom=AllCheck Guess=TCheck SCRF=Check GenChk RB3LYP/6-31G(d,p) Freq
 ----------------------------------------------------------------------

 Structure from the checkpoint file:  "smiles_00048_conf_0.chk"
 ----------------------------------
 opt-freq conformers_unique/conf_aa
 ----------------------------------
 Charge =  0 Multiplicity = 1

 SCF Done:  E(RB3LYP) =  -747.236588483     A.U. after    1 cycles

                      1                      2                      3
                      A                      A                      A
 Frequencies --     61.3797               115.1781               255.2488
 Red. masses --      1.0802                 4.1934                 4.5978
 Frc consts  --      0.0024                 0.0328                 0.1765
 IR Inten    --      0.0306                 0.0964                 0.0744

                      4                      5                      6
                      A                      A                      A
 Frequencies --    309.4358               377.1764               391.8273
 Red. masses --      3.9351                 3.9592                 7.1513
 Frc consts  --      0.2220                 0.3319                 0.6469
 IR Inten    --      0.4774                 4.8938                 4.2114

                      7                      8                      9
                      A                      A                      A
 Frequencies --    426.1006               503.8163               635.8163
 Red. masses --      3.6337                 2.7876                 5.8684
 Frc consts  --      0.3887                 0.4169                 1.3978
 IR Inten    --      2.7810                 3.2789                15.2044

                     10                     11                     12
                      A                      A                      A
 Frequencies --    652.5097               745.3296               834.3600
 Red. masses --      7.6511                 5.1553                 6.1708
 Frc consts  --      1.9193                 1.6873                 2.5310
 IR Inten    --      6.2124                 2.9396                20.2430

                     13                     14                     15
                      A                      A                      A
 Frequencies --    838.6845               940.4384               985.1868
 Red. masses --      1.3562                 1.3005                 1.3223
 Frc consts  --      0.5620                 0.6777                 0.7562
 IR Inten    --     21.4938                 0.5272                 0.0491

                     16                     17                     18
                      A                      A                      A
 Frequencies --   1012.9589              1047.2490              1069.6373
 Red. masses --      1.4771                 3.0142                 1.5310
 Frc consts  --      0.8930                 1.9477                 1.0320
 IR Inten    --      0.2658                17.8120                 4.4668

                     19                     20                     21
                      A                      A                      A
 Frequencies --   1134.3426              1168.4271              1251.3615
 Red. masses --      3.1676                 1.4238                 2.6970
 Frc consts  --      2.4014                 1.1453                 2.4883
 IR Inten    --    101.4678                25.4210                 5.5368

                     22                     23                     24
                      A                      A                      A
 Frequencies --   1316.0339              1327.7490              1412.7457
 Red. masses --      8.5718                 1.4491                 2.5960
 Frc consts  --      8.7469                 1.5051                 3.0526
 IR Inten    --      0.0748                 1.5023                35.8153

                     25                     26                     27
                      A                      A                      A
 Frequencies --   1431.0951              1498.6211              1504.6898
 Red. masses --      1.2558                 1.0431                 1.4583
 Frc consts  --      1.5154                 1.3803                 1.9454
 IR Inten    --      0.0185                 6.0075                72.0382

                     28                     29                     30
                      A                      A                      A
 Frequencies --   1509.7504              1618.4398              1646.5219
 Red. masses --      1.5947                 6.0327                 5.6755
 Frc consts  --      2.1416                 9.3101                 9.0655
 IR Inten    --     52.4603                26.6071                24.3724

                     31                     32                     33
                      A                      A                      A
 Frequencies --   3044.9990              3102.7210              3131.0751
 Red. masses --      1.0371                 1.1013                 1.1014
 Frc consts  --      5.6658                 6.2465                 6.3620
 IR Inten    --     25.3270                15.6006                11.6876

                     34                     35                     36
                      A                      A                      A
 Frequencies --   3166.7221              3185.9422              3231.7598
 Red. masses --      1.0909                 1.0905                 1.0946
 Frc consts  --      6.4454                 6.5214                 6.7356
 IR Inten    --     25.5199                 9.4476                 1.8773

 - Thermochemistry -
 -------------------
 Temperature   298.150 Kelvin.  Pressure   1.00000 Atm.
 Atom     1 has atomic number  6 and mass  12.00000

 Molecular mass:   127.01888 amu.
 Principal axes and moments of inertia in atomic units:
                           1         2         3
     Eigenvalues --   316.437111825.528362130.76738
           X            0.99999   0.00514  -0.00002
           Y           -0.00514   0.99999  -0.00000
           Z            0.00002   0.00000   1.00000
 This molecule is an asymmetric top.
 Rotational symmetry number  1.
 Rotational temperatures (Kelvin)      0.27372     0.04745     0.04065
 Rotational constants (GHZ):           5.70332     0.98861     0.84699
 Zero-point vibrational energy     280436.6 (Joules/Mol)
                                   67.02595 (Kcal/Mol)
 Warning -- explicit consideration of   8 degrees of freedom as
           vibrations may cause significant error
 Vibrational temperatures:     88.31   165.72   367.25   445.21   542.67
          (Kelvin)            563.75   613.06   724.88   914.80   938.82
                             1072.36  1200.46  1206.68  1353.08  1417.46
                             1457.42  1506.76  1538.97  1632.07  1681.11
                             1800.43  1893.48  1910.33  2032.63  2059.03
                             2156.18  2164.91  2172.19  2328.57  2368.98
                             4381.07  4464.12  4504.92  4556.21  4583.86
                             4649.78

 Zero-point correction=                           0.106813 (Hartree/Particle)
 Thermal correction to Energy=                    0.114001
 Thermal correction to Enthalpy=                  0.114945
 Thermal correction to Gibbs Free Energy=         0.074396
 Sum of electronic and zero-point Energies=           -747.129776
 Sum of electronic and thermal Energies=              -747.122588
 Sum of electronic and thermal Enthalpies=            -747.121643
 Sum of electronic and thermal Free Energies=         -747.162192

                     E (Thermal)             CV                S
                      KCal/Mol        Cal/Mol-Kelvin    Cal/Mol-Kelvin
 Total                   71.537             26.031             85.342
 Electronic               0.000              0.000              0.000
 Translational            0.889              2.981             40.431
 Rotational               0.889              2.981             28.600
 Vibrational             69.759             20.069             16.311
 Vibration     1          0.597              1.973              4.412
 Vibration     2          0.608              1.937              3.180
 Vibration     3          0.666              1.754              1.694
 Vibration     4          0.699              1.656              1.365
 Vibration     5          0.748              1.519              1.050
 Vibration     6          0.759              1.488              0.993
 Vibration     7          0.788              1.413              0.871
 Vibration     8          0.859              1.242              0.649

                           ! Non-Optimized Parameters !
 Normal termination of Gaussian 16 at Tue Sep 17 09:57:31 2024.

 ----------------------------------------------------------------------
 #p M062X/def2tzvp geom=check guess=read scf(xqc,tight) integral(grid=u
 ltrafine) scrf(SMD, solvent=1,4-Dioxane) polar prop=efg volume
 ----------------------------------------------------------------------

 ---
 spe
 ---
 Structure from the checkpoint file:  "smiles_00048_conf_0.chk"
 Charge =  0 Multiplicity = 1

 SCF Done:  E(RM062X) =  -747.188289075     A.U. after   12 cycles

  Exact polarizability:     143.678       1.806      99.200      -0.013      -0.001      58.624
 Approx polarizability:     144.313       1.303     117.984      -0.014       0.000      71.410

 Normal termination of Gaussian 16 at Tue Sep 17 10:04:34 2024.
 Gaussian 16:  ES64L-G16RevC.02  7-Dec-2021

 ----------------------------------------------------------------------
 #p M062X/def2tzvp geom=check guess=read scf(xqc,tight) integral(grid=u
 ltrafine) scrf(SMD, solvent=1,4-Dioxane) nmr=giao
 ----------------------------------------------------------------------

 ---
 spe
 ---
 Structure from the checkpoint file:  "smiles_00048_conf_0.chk"
 Charge =  0 Multiplicity = 1

                         Standard orientation:
 ---------------------------------------------------------------------
 Center     Atomic      Atomic             Coordinates (Angstroms)
 Number     Number       Type             X           Y           Z
 ---------------------------------------------------------------------
      1          6           0       -3.281192   -0.062442    0.000532
      2          6           0       -1.776931   -0.004829   -0.000218
      3          6           0       -1.082160    1.212520   -0.000266
      4          6           0        0.306629    1.222234   -0.000244
      5          6           0        0.953772   -0.016088   -0.000435
      6         17           0        2.717240   -0.045236    0.000353
      7          7           0        0.338684   -1.181507   -0.000328
      8          6           0       -1.002169   -1.166472   -0.000237
      9          1           0       -3.636743   -1.095839   -0.008746
     10          1           0       -3.697159    0.427420    0.887622
     11          1           0       -3.698846    0.444161   -0.876217
     12          1           0       -1.628565    2.151842   -0.000369
     13          1           0        0.874188    2.144491   -0.000216
     14          1           0       -1.484441   -2.142047   -0.000578
 ---------------------------------------------------------------------

 SCF Done:  E(RM062X) =  -747.188289075     A.U. after    1 cycles

      1  C    Isotropic =   167.6658   Anisotropy =    34.7470

      2  C    Isotropic =    29.0745   Anisotropy =   226.1496

      3  C    Isotropic =    21.1079   Anisotropy =   222.6176

      4  C    Isotropic =    40.5656   Anisotropy =   176.7065

      5  C    Isotropic =     7.1737   Anisotropy =   118.2919

      6  Cl   Isotropic =   611.0737   Anisotropy =   626.2974

      7  N    Isotropic =  -128.6188   Anisotropy =   563.5228

      8  C    Isotropic =    11.7283   Anisotropy =   174.2999

      9  H    Isotropic =    29.5767   Anisotropy =     7.9407

     10  H    Isotropic =    29.4038   Anisotropy =     8.2833

     11  H    Isotropic =    29.4058   Anisotropy =     8.2655

     12  H    Isotropic =    23.4413   Anisotropy =     8.3932

     13  H    Isotropic =    23.8392   Anisotropy =     9.0461

     14  H    Isotropic =    22.7556   Anisotropy =     8.2440

 The electronic state is 1-A.
 Alpha  occ. eigenvalues -- -102.64329 -14.76383 -10.63827 -10.58481 -10.56777
 Alpha  occ. eigenvalues --  -10.56598 -10.56367 -10.54104  -9.80604  -7.52790
 Alpha  occ. eigenvalues --   -7.52296  -7.52272  -1.07879  -0.95249  -0.92446
 Alpha  occ. eigenvalues --   -0.86728  -0.78617  -0.73022  -0.69030  -0.59280
 Alpha  occ. eigenvalues --   -0.57604  -0.53633  -0.51186  -0.48687  -0.48113
 Alpha  occ. eigenvalues --   -0.47903  -0.46103  -0.42986  -0.39979  -0.38106
 Alpha  occ. eigenvalues --   -0.35393  -0.34396  -0.30517
 Alpha virt. eigenvalues --   -0.00857   0.00824   0.06670   0.08446   0.10730
 Alpha virt. eigenvalues --    0.11730   0.12621   0.14017   0.14201   0.16539
 Alpha virt. eigenvalues --    0.17726   0.18466   0.19651   0.22265   0.23200

 Mulliken charges:
               1
     1  C   -0.481619
     2  C    0.069743
     3  C   -0.126839
     4  C   -0.207991
     5  C    0.148590
     6  Cl  -0.100149
     7  N   -0.230719
     8  C   -0.076122
     9  H    0.153943
    10  H    0.169148
    11  H    0.168903
    12  H    0.175463
    13  H    0.175268
    14  H    0.162380
 Sum of Mulliken charges =  -0.00000

 Dipole moment (field-independent basis, Debye):
    X=             -4.0520    Y=              2.2254    Z=              0.0011  Tot=              4.6229
 Quadrupole moment (field-independent basis, Debye-Ang):
   XX=            -50.5006   YY=            -51.2236   ZZ=            -55.8129
   XY=              2.2941   XZ=             -0.0028   YZ=             -0.0005

 Normal termination of Gaussian 16 at Tue Sep 17 10:07:57 2024.
