 Gaussian 16, Revision C.02,

 ----------------------------------------------------------------------
 #p B3LYP/6-31G(d,p) EmpiricalDispersion=GD3BJ opt freq scf(xqc,tight)
 integral(grid=ultrafine)
 ----------------------------------------------------------------------

 ----------------------------------
 opt-freq conformers_unique/conf_aa
 ----------------------------------
 Symbolic Z-matrix:
 Charge =  0 Multiplicity = 1

 SCF Done:  E(RB3LYP) =  -3117.96749367     A.U. after   14 cycles
 SCF Done:  E(RB3LYP) =  -3117.96931432     A.U. after   10 cycles
 SCF Done:  E(RB3LYP) =  -3117.96937355     A.U. after    9 cycles
 SCF Done:  E(RB3LYP) =  -3117.96937728     A.U. after    8 cycles
 SCF Done:  E(RB3LYP) =  -3117.96937792     A.U. after    7 cycles
 Optimization completed.
    -- Stationary point found.
 Normal termination of Gaussian 16 at Tue Sep 17 09:48:58 2024.

 ----------------------------------------------------------------------
 #P Geom=AllCheck Guess=TCheck SCRF=Check GenChk RB3LYP/6-31G(d,p) Freq
 ----------------------------------------------------------------------

 Structure from the checkpoint file:  "smiles_00109_conf_0.chk"
 ----------------------------------
 opt-freq conformers_unique/conf_aa
 ----------------------------------
 Charge =  0 Multiplicity = 1

 SCF Done:  E(RB3LYP) =  -3117.96937792     A.U. after    1 cycles

                      1                      2                      3
                      A                      A                      A
 Frequencies --     33.1655                35.5967                79.2578
 Red. masses --      2.7261                 3.0130                 3.5782
 Frc consts  --      0.0018                 0.0022                 0.0132
 IR Inten    --      0.0000                 0.0130                 0.1732

                      4                      5                      6
                      A                      A                      A
 Frequencies --    127.0327               127.8719               149.7122
 Red. masses --      3.6987                 6.2469                 2.8556
 Frc consts  --      0.0352                 0.0602                 0.0377
 IR Inten    --      0.1732                 0.0284                 0.0000

                      7                      8                      9
                      A                      A                      A
 Frequencies --    181.0178               232.0921               233.3266
 Red. masses --      4.6980                 1.0942                 1.0465
 Frc consts  --      0.0907                 0.0347                 0.0336
 IR Inten    --      0.0139                 0.0000                 0.0177

                     10                     11                     12
                      A                      A                      A
 Frequencies --    245.0007               258.6734               267.6222
 Red. masses --      5.1223                 1.9304                 1.1442
 Frc consts  --      0.1812                 0.0761                 0.0483
 IR Inten    --      1.2336                 0.0397                 0.1122

                     13                     14                     15
                      A                      A                      A
 Frequencies --    277.2078               310.0716               310.3889
 Red. masses --      1.2187                 2.5080                 2.1747
 Frc consts  --      0.0552                 0.1421                 0.1234
 IR Inten    --      0.1191                 0.0000                 0.0092

                     16                     17                     18
                      A                      A                      A
 Frequencies --    328.5008               335.7137               348.8402
 Red. masses --      1.1807                 1.0538                 2.0234
 Frc consts  --      0.0751                 0.0700                 0.1451
 IR Inten    --      0.1636                 0.0000                 0.5121

                     19                     20                     21
                      A                      A                      A
 Frequencies --    354.4105               377.0864               385.3592
 Red. masses --      3.2483                 2.5221                 3.3743
 Frc consts  --      0.2404                 0.2113                 0.2952
 IR Inten    --      0.7299                 0.0000                 0.0001

                     22                     23                     24
                      A                      A                      A
 Frequencies --    392.1491               404.8249               464.3950
 Red. masses --      2.3352                 2.6214                 3.0147
 Frc consts  --      0.2116                 0.2531                 0.3831
 IR Inten    --      0.0000                 0.6010                 0.1477

                     25                     26                     27
                      A                      A                      A
 Frequencies --    523.2167               539.1470               553.7088
 Red. masses --      3.2352                 3.1603                 2.7155
 Frc consts  --      0.5218                 0.5412                 0.4905
 IR Inten    --      0.0492                 1.1160                 1.5099

                     28                     29                     30
                      A                      A                      A
 Frequencies --    579.9187               652.3599               729.7610
 Red. masses --      4.8825                 4.4112                 2.1689
 Frc consts  --      0.9674                 1.1061                 0.6805
 IR Inten    --      0.0439                 0.0000                 9.6266

                     31                     32                     33
                      A                      A                      A
 Frequencies --    759.9521               774.5422               852.9847
 Red. masses --      6.5676                 4.3183                 2.7774
 Frc consts  --      2.2348                 1.5263                 1.1906
 IR Inten    --     35.1581                 0.0631                28.0578

                     34                     35                     36
                      A                      A                      A
 Frequencies --    898.4836               912.0658               912.1978
 Red. masses --      1.6682                 1.4182                 2.6636
 Frc consts  --      0.7934                 0.6951                 1.3058
 IR Inten    --     17.8633                 0.0048                 9.2221

                     37                     38                     39
                      A                      A                      A
 Frequencies --    924.4253               937.9889               939.6706
 Red. masses --      1.4097                 1.7081                 1.6526
 Frc consts  --      0.7098                 0.8854                 0.8597
 IR Inten    --      0.0152                 0.0000                 3.2492

                     40                     41                     42
                      A                      A                      A
 Frequencies --    948.8978               949.9153               967.4965
 Red. masses --      1.6866                 1.6632                 1.1971
 Frc consts  --      0.8947                 0.8842                 0.6602
 IR Inten    --      0.7221                 3.4820                 0.0000

                     43                     44                     45
                      A                      A                      A
 Frequencies --    968.8258              1018.8756              1050.0473
 Red. masses --      1.1987                 5.4323                 1.4512
 Frc consts  --      0.6629                 3.3226                 0.9427
 IR Inten    --      0.3984                 3.4763                 0.7336

                     46                     47                     48
                      A                      A                      A
 Frequencies --   1053.7868              1056.6627              1056.7562
 Red. masses --      1.3897                 1.3987                 1.3939
 Frc consts  --      0.9092                 0.9201                 0.9171
 IR Inten    --      0.6353                 0.0099                 0.0000

                     49                     50                     51
                      A                      A                      A
 Frequencies --   1151.6399              1165.9248              1172.3518
 Red. masses --      2.1475                 1.5324                 2.2034
 Frc consts  --      1.6781                 1.2273                 1.7842
 IR Inten    --      5.8528                 0.0297                 0.3815

                     52                     53                     54
                      A                      A                      A
 Frequencies --   1236.9274              1237.1916              1241.7264
 Red. masses --      2.7448                 2.7274                 2.5033
 Frc consts  --      2.4743                 2.4596                 2.2741
 IR Inten    --      0.0000                 5.8694                 0.0458

                     55                     56                     57
                      A                      A                      A
 Frequencies --   1244.1520              1280.7334              1312.9675
 Red. masses --      2.5606                 2.5033                 3.4597
 Frc consts  --      2.3353                 2.4192                 3.5140
 IR Inten    --      3.1602                53.7851                31.3088

                     58                     59                     60
                      A                      A                      A
 Frequencies --   1314.8115              1356.2551              1410.9877
 Red. masses --      1.7016                 2.9684                 1.2550
 Frc consts  --      1.7331                 3.2171                 1.4721
 IR Inten    --      0.5351                 2.7337                 2.4269

                     61                     62                     63
                      A                      A                      A
 Frequencies --   1412.6311              1413.3892              1414.4623
 Red. masses --      1.2164                 1.2158                 1.2436
 Frc consts  --      1.4302                 1.4309                 1.4659
 IR Inten    --      0.0001                 8.2547                 5.7310

                     64                     65                     66
                      A                      A                      A
 Frequencies --   1444.8427              1445.2425              1462.3987
 Red. masses --      1.2183                 1.2239                 2.7209
 Frc consts  --      1.4985                 1.5062                 3.4284
 IR Inten    --      4.2426                 0.4920                28.7594

                     67                     68                     69
                      A                      A                      A
 Frequencies --   1488.1057              1495.8462              1496.6847
 Red. masses --      2.8386                 1.0490                 1.0490
 Frc consts  --      3.7036                 1.3829                 1.3844
 IR Inten    --     10.2742                 0.0000                 0.0131

                     70                     71                     72
                      A                      A                      A
 Frequencies --   1499.0556              1501.2164              1503.8534
 Red. masses --      1.0447                 1.0446                 1.0618
 Frc consts  --      1.3832                 1.3870                 1.4148
 IR Inten    --      0.0000                 0.0112                 0.0405

                     73                     74                     75
                      A                      A                      A
 Frequencies --   1506.5996              1518.8019              1519.8809
 Red. masses --      1.0710                 1.0676                 1.0745
 Frc consts  --      1.4323                 1.4510                 1.4624
 IR Inten    --      2.6728                 1.7822                 6.1219

                     76                     77                     78
                      A                      A                      A
 Frequencies --   1522.1899              1522.7717              1535.1083
 Red. masses --      1.0503                 1.0506                 1.0726
 Frc consts  --      1.4338                 1.4353                 1.4892
 IR Inten    --      0.0000                 9.5773                16.0692

                     79                     80                     81
                      A                      A                      A
 Frequencies --   1536.6568              1619.5905              1652.9025
 Red. masses --      1.0664                 5.8233                 5.8826
 Frc consts  --      1.4836                 8.9997                 9.4693
 IR Inten    --      2.5320                82.4542                36.5660

                     82                     83                     84
                      A                      A                      A
 Frequencies --   3041.4172              3041.5501              3041.6754
 Red. masses --      1.0350                 1.0350                 1.0348
 Frc consts  --      5.6409                 5.6415                 5.6409
 IR Inten    --      0.0053                49.9616                 2.8300

                     85                     86                     87
                      A                      A                      A
 Frequencies --   3041.7596              3048.8983              3049.0720
 Red. masses --      1.0349                 1.0363                 1.0362
 Frc consts  --      5.6413                 5.6755                 5.6759
 IR Inten    --     43.0208                38.0588                 8.2049

                     88                     89                     90
                      A                      A                      A
 Frequencies --   3112.3350              3112.6929              3113.2845
 Red. masses --      1.1023                 1.1023                 1.1025
 Frc consts  --      6.2912                 6.2923                 6.2962
 IR Inten    --      0.0004                 6.2626                11.4355

                     91                     92                     93
                      A                      A                      A
 Frequencies --   3113.4355              3118.5142              3118.6206
 Red. masses --      1.1026                 1.1031                 1.1030
 Frc consts  --      6.2970                 6.3205                 6.3208
 IR Inten    --      0.1104                 0.0013                35.7693

                     94                     95                     96
                      A                      A                      A
 Frequencies --   3120.6263              3121.1113              3124.2935
 Red. masses --      1.1017                 1.1015                 1.1024
 Frc consts  --      6.3210                 6.3219                 6.3400
 IR Inten    --    114.5971                66.4224                 0.0851

                     97                     98                     99
                      A                      A                      A
 Frequencies --   3124.2985              3126.1855              3126.5846
 Red. masses --      1.1024                 1.1019                 1.1017
 Frc consts  --      6.3403                 6.3447                 6.3454
 IR Inten    --     41.2945                26.8715                53.3032

                    100                    101                    102
                      A                      A                      A
 Frequencies --   3200.0243              3245.3643              3245.8850
 Red. masses --      1.0881                 1.0900                 1.0906
 Frc consts  --      6.5650                 6.7642                 6.7699
 IR Inten    --     13.7166                 0.4787                 0.2826

 - Thermochemistry -
 -------------------
 Temperature   298.150 Kelvin.  Pressure   1.00000 Atm.
 Atom     1 has atomic number  6 and mass  12.00000

 Molecular mass:   268.08266 amu.
 Principal axes and moments of inertia in atomic units:
                           1         2         3
     Eigenvalues --  4287.453155208.906288698.04404
           X            1.00000  -0.00000  -0.00000
           Y            0.00000   1.00000   0.00000
           Z            0.00000  -0.00000   1.00000
 This molecule is an asymmetric top.
 Rotational symmetry number  1.
 Warning -- assumption of classical behavior for rotation
           may cause significant error
 Rotational temperatures (Kelvin)      0.02020     0.01663     0.00996
 Rotational constants (GHZ):           0.42094     0.34647     0.20749
 Zero-point vibrational energy     830486.7 (Joules/Mol)
                                  198.49108 (Kcal/Mol)
 Warning -- explicit consideration of  28 degrees of freedom as
           vibrations may cause significant error
 Vibrational temperatures:     47.72    51.22   114.03   182.77   183.98
          (Kelvin)            215.40   260.44   333.93   335.70   352.50
                              372.17   385.05   398.84   446.12   446.58
                              472.64   483.02   501.90   509.92   542.54
                              554.45   564.22   582.45   668.16   752.79
                              775.71   796.66   834.37   938.60  1049.96
                             1093.40  1114.39  1227.25  1292.72  1312.26
                             1312.45  1330.04  1349.56  1351.98  1365.25
                             1366.72  1392.01  1393.92  1465.93  1510.78
                             1516.16  1520.30  1520.44  1656.95  1677.51
                             1686.75  1779.66  1780.04  1786.57  1790.06
                             1842.69  1889.07  1891.72  1951.35  2030.10
                             2032.46  2033.55  2035.10  2078.81  2079.38
                             2104.07  2141.05  2152.19  2153.40  2156.81
                             2159.92  2163.71  2167.66  2185.22  2186.77
                             2190.09  2190.93  2208.68  2210.91  2330.23
                             2378.16  4375.92  4376.11  4376.29  4376.41
                             4386.68  4386.93  4477.96  4478.47  4479.32
                             4479.54  4486.85  4487.00  4489.89  4490.58
                             4495.16  4495.17  4497.88  4498.46  4604.12
                             4669.36  4670.10

 Zero-point correction=                           0.316316 (Hartree/Particle)
 Thermal correction to Energy=                    0.333126
 Thermal correction to Enthalpy=                  0.334070
 Thermal correction to Gibbs Free Energy=         0.272006
 Sum of electronic and zero-point Energies=          -3117.653062
 Sum of electronic and thermal Energies=             -3117.636252
 Sum of electronic and thermal Enthalpies=           -3117.635308
 Sum of electronic and thermal Free Energies=        -3117.697372

                     E (Thermal)             CV                S
                      KCal/Mol        Cal/Mol-Kelvin    Cal/Mol-Kelvin
 Total                  209.039             65.131            130.625
 Electronic               0.000              0.000              0.000
 Translational            0.889              2.981             42.657
 Rotational               0.889              2.981             33.629
 Vibrational            207.262             59.169             54.338
 Vibration     1          0.594              1.983              5.630
 Vibration     2          0.594              1.982              5.490
 Vibration     3          0.600              1.963              3.909
 Vibration     4          0.611              1.926              2.990
 Vibration     5          0.611              1.925              2.978
 Vibration     6          0.618              1.903              2.676
 Vibration     7          0.630              1.866              2.318
 Vibration     8          0.653              1.792              1.863
 Vibration     9          0.654              1.790              1.853
 Vibration    10          0.660              1.771              1.766
 Vibration    11          0.667              1.748              1.671
 Vibration    12          0.673              1.733              1.612
 Vibration    13          0.678              1.716              1.551
 Vibration    14          0.699              1.655              1.362
 Vibration    15          0.699              1.654              1.360
 Vibration    16          0.712              1.619              1.267
 Vibration    17          0.717              1.604              1.232
 Vibration    18          0.726              1.578              1.171
 Vibration    19          0.730              1.566              1.147
 Vibration    20          0.748              1.519              1.051
 Vibration    21          0.754              1.501              1.018
 Vibration    22          0.760              1.487              0.992
 Vibration    23          0.770              1.460              0.945
 Vibration    24          0.822              1.329              0.753
 Vibration    25          0.878              1.199              0.603
 Vibration    26          0.894              1.163              0.567
 Vibration    27          0.909              1.132              0.537
 Vibration    28          0.937              1.075              0.486

                           ! Non-Optimized Parameters !
 Normal termination of Gaussian 16 at Tue Sep 17 09:56:07 2024.

 ----------------------------------------------------------------------
 #p M062X/def2tzvp geom=check guess=read scf(xqc,tight) integral(grid=u
 ltrafine) scrf(SMD, solvent=1,4-Dioxane) polar prop=efg volume
 ----------------------------------------------------------------------

 ---
 spe
 ---
 Structure from the checkpoint file:  "smiles_00109_conf_0.chk"
 Charge =  0 Multiplicity = 1

 SCF Done:  E(RM062X) =  -3120.29710739     A.U. after   11 cycles

  Exact polarizability:     248.751       0.000     238.944       0.001      -0.001     157.600
 Approx polarizability:     261.807       0.000     240.268       0.001      -0.001     182.318

 Normal termination of Gaussian 16 at Tue Sep 17 12:16:11 2024.
 Gaussian 16:  ES64L-G16RevC.02  7-Dec-2021

 ----------------------------------------------------------------------
 #p M062X/def2tzvp geom=check guess=read scf(xqc,tight) integral(grid=u
 ltrafine) scrf(SMD, solvent=1,4-Dioxane) nmr=giao
 ----------------------------------------------------------------------

 ---
 spe
 ---
 Structure from the checkpoint file:  "smiles_00109_conf_0.chk"
 Charge =  0 Multiplicity = 1

                         Standard orientation:
 ---------------------------------------------------------------------
 Center     Atomic      Atomic             Coordinates (Angstroms)
 Number     Number       Type             X           Y           Z
 ---------------------------------------------------------------------
      1          6           0       -2.385850    2.581505    1.261488
      2          6           0       -1.496933    2.535090   -0.000007
      3          6           0       -0.594884    3.779654   -0.000981
      4          6           0       -2.387686    2.581024   -1.260206
      5          6           0       -0.687965    1.229884   -0.000168
      6          6           0        0.711545    1.218297   -0.000127
      7          6           0        1.380616    0.000000   -0.000061
      8         35           0        3.297751    0.000001    0.000005
      9          6           0        0.711546   -1.218297   -0.000048
     10          6           0       -0.687963   -1.229885   -0.000092
     11          6           0       -1.496932   -2.535091   -0.000008
     12          6           0       -0.594883   -3.779656   -0.000344
     13          6           0       -2.387101   -2.581200   -1.260619
     14          6           0       -2.386432   -2.581329    1.261076
     15          6           0       -1.356834   -0.000001   -0.000136
     16          1           0       -1.774705    2.547916    2.168616
     17          1           0       -2.973616    3.505537    1.278092
     18          1           0       -3.083611    1.740357    1.296592
     19          1           0        0.045238    3.816861    0.885892
     20          1           0        0.044357    3.816056   -0.888523
     21          1           0       -1.213898    4.681793   -0.001039
     22          1           0       -3.085620    1.739973   -1.294025
     23          1           0       -1.777886    2.547074   -2.168225
     24          1           0       -2.975408    3.505089   -1.276268
     25          1           0        1.284289    2.134939   -0.000190
     26          1           0        1.284291   -2.134939   -0.000032
     27          1           0        0.044957   -3.816597    0.886743
     28          1           0        0.044641   -3.816324   -0.887671
     29          1           0       -1.213896   -4.681794   -0.000354
     30          1           0       -2.974842   -3.505252   -1.276833
     31          1           0       -3.084976   -1.740114   -1.294865
     32          1           0       -1.776873   -2.547387   -2.168356
     33          1           0       -2.974176   -3.505376    1.277533
     34          1           0       -1.775716   -2.547595    2.168488
     35          1           0       -3.084257   -1.740217    1.295748
     36          1           0       -2.441027   -0.000002   -0.000108
 ---------------------------------------------------------------------

 SCF Done:  E(RM062X) =  -3120.29710739     A.U. after    1 cycles

      1  C    Isotropic =   151.4812   Anisotropy =    46.5710

      2  C    Isotropic =   146.9785   Anisotropy =    16.3031

      3  C    Isotropic =   155.6445   Anisotropy =    36.4677

      4  C    Isotropic =   151.4997   Anisotropy =    46.5525

      5  C    Isotropic =     6.4749   Anisotropy =   230.8279

      6  C    Isotropic =    39.3504   Anisotropy =   168.4780

      7  C    Isotropic =    25.8481   Anisotropy =   127.4774

      8  Br   Isotropic =  2085.3690   Anisotropy =  1323.3738

      9  C    Isotropic =    39.3505   Anisotropy =   168.4780

     10  C    Isotropic =     6.4749   Anisotropy =   230.8280

     11  C    Isotropic =   146.9786   Anisotropy =    16.3030

     12  C    Isotropic =   155.6446   Anisotropy =    36.4677

     13  C    Isotropic =   151.4935   Anisotropy =    46.5587

     14  C    Isotropic =   151.4874   Anisotropy =    46.5647

     15  C    Isotropic =    37.1608   Anisotropy =   209.0226

     16  H    Isotropic =    30.8406   Anisotropy =     7.9981

     17  H    Isotropic =    30.7466   Anisotropy =     9.5827

     18  H    Isotropic =    30.3110   Anisotropy =     7.5885

     19  H    Isotropic =    30.3885   Anisotropy =     8.3828

     20  H    Isotropic =    30.3895   Anisotropy =     8.3824

     21  H    Isotropic =    30.7946   Anisotropy =     8.7867

     22  H    Isotropic =    30.3089   Anisotropy =     7.5924

     23  H    Isotropic =    30.8402   Anisotropy =     8.0005

     24  H    Isotropic =    30.7469   Anisotropy =     9.5802

     25  H    Isotropic =    23.9259   Anisotropy =    15.8386

     26  H    Isotropic =    23.9259   Anisotropy =    15.8385

     27  H    Isotropic =    30.3888   Anisotropy =     8.3827

     28  H    Isotropic =    30.3893   Anisotropy =     8.3826

     29  H    Isotropic =    30.7946   Anisotropy =     8.7867

     30  H    Isotropic =    30.7468   Anisotropy =     9.5810

     31  H    Isotropic =    30.3096   Anisotropy =     7.5912

     32  H    Isotropic =    30.8403   Anisotropy =     7.9998

     33  H    Isotropic =    30.7467   Anisotropy =     9.5820

     34  H    Isotropic =    30.8405   Anisotropy =     7.9988

     35  H    Isotropic =    30.3103   Anisotropy =     7.5897

     36  H    Isotropic =    23.5306   Anisotropy =    16.9440

 The electronic state is 1-A.
 Alpha  occ. eigenvalues -- -485.36965 -63.35440 -57.17382 -57.17151 -57.17146
 Alpha  occ. eigenvalues --  -10.59670 -10.55552 -10.55552 -10.55413 -10.55412
 Alpha  occ. eigenvalues --  -10.54490 -10.54488 -10.53836 -10.52220 -10.52220
 Alpha  occ. eigenvalues --  -10.52219 -10.52219 -10.52116 -10.52116  -9.02077
 Alpha  occ. eigenvalues --   -6.84471  -6.83616  -6.83598  -2.87847  -2.87538
 Alpha  occ. eigenvalues --   -2.87516  -2.86719  -2.86719  -0.98166  -0.93001
 Alpha  occ. eigenvalues --   -0.92045  -0.87432  -0.83159  -0.81158  -0.77587
 Alpha  occ. eigenvalues --   -0.77498  -0.77448  -0.77162  -0.70653  -0.68395
 Alpha  occ. eigenvalues --   -0.62885  -0.59919  -0.58859  -0.54485  -0.52829
 Alpha  occ. eigenvalues --   -0.52458  -0.50941  -0.50528  -0.49690  -0.48932
 Alpha  occ. eigenvalues --   -0.47241  -0.46895  -0.45295  -0.44733  -0.44357
 Alpha  occ. eigenvalues --   -0.43793  -0.43501  -0.43382  -0.42609  -0.42524
 Alpha  occ. eigenvalues --   -0.39945  -0.39279  -0.39163  -0.38478  -0.37195
 Alpha  occ. eigenvalues --   -0.36709  -0.36083  -0.34514  -0.30143  -0.28786
 Alpha virt. eigenvalues --    0.01167   0.02063   0.04158   0.05691   0.07657
 Alpha virt. eigenvalues --    0.09571   0.10592   0.10639   0.11223   0.11687
 Alpha virt. eigenvalues --    0.12514   0.12988   0.13271   0.13954   0.14943

 Mulliken charges:
               1
     1  C   -0.438280
     2  C   -0.056444
     3  C   -0.533572
     4  C   -0.438334
     5  C    0.142674
     6  C   -0.212323
     7  C    0.065385
     8  Br  -0.125505
     9  C   -0.212323
    10  C    0.142675
    11  C   -0.056445
    12  C   -0.533572
    13  C   -0.438315
    14  C   -0.438299
    15  C   -0.383102
    16  H    0.164553
    17  H    0.157334
    18  H    0.150310
    19  H    0.173812
    20  H    0.173876
    21  H    0.164501
    22  H    0.150290
    23  H    0.164566
    24  H    0.157345
    25  H    0.196156
    26  H    0.196156
    27  H    0.173831
    28  H    0.173857
    29  H    0.164500
    30  H    0.157341
    31  H    0.150297
    32  H    0.164562
    33  H    0.157338
    34  H    0.164558
    35  H    0.150303
    36  H    0.210292
 Sum of Mulliken charges =  -0.00000

 Dipole moment (field-independent basis, Debye):
    X=             -2.9476    Y=             -0.0000    Z=              0.0001  Tot=              2.9476
 Quadrupole moment (field-independent basis, Debye-Ang):
   XX=           -109.3002   YY=            -98.6505   ZZ=           -110.4020
   XY=             -0.0000   XZ=             -0.0000   YZ=             -0.0001

 Normal termination of Gaussian 16 at Tue Sep 17 13:10:30 2024.
