 Gaussian 16, Revision C.02,

 ----------------------------------------------------------------------
 #p B3LYP/6-31G(d,p) EmpiricalDispersion=GD3BJ opt freq scf(xqc,tight)
 integral(grid=ultrafine)
 ----------------------------------------------------------------------

 ----------------------------------
 opt-freq conformers_unique/conf_ab
 ----------------------------------
 Symbolic Z-matrix:
 Charge =  0 Multiplicity = 1

 SCF Done:  E(RB3LYP) =  -3117.96739442     A.U. after   14 cycles
 SCF Done:  E(RB3LYP) =  -3117.96922157     A.U. after   10 cycles
 SCF Done:  E(RB3LYP) =  -3117.96928371     A.U. after    9 cycles
 SCF Done:  E(RB3LYP) =  -3117.96929230     A.U. after    8 cycles
 SCF Done:  E(RB3LYP) =  -3117.96929300     A.U. after    7 cycles
 Optimization completed.
    -- Stationary point found.
 Normal termination of Gaussian 16 at Tue Sep 17 09:48:26 2024.

 ----------------------------------------------------------------------
 #P Geom=AllCheck Guess=TCheck SCRF=Check GenChk RB3LYP/6-31G(d,p) Freq
 ----------------------------------------------------------------------

 Structure from the checkpoint file:  "smiles_00109_conf_1.chk"
 ----------------------------------
 opt-freq conformers_unique/conf_ab
 ----------------------------------
 Charge =  0 Multiplicity = 1

 SCF Done:  E(RB3LYP) =  -3117.96929300     A.U. after    1 cycles

                      1                      2                      3
                      A                      A                      A
 Frequencies --     35.1055                36.7197                82.1995
 Red. masses --      2.8234                 2.8541                 3.7564
 Frc consts  --      0.0021                 0.0023                 0.0150
 IR Inten    --      0.0264                 0.0052                 0.1483

                      4                      5                      6
                      A                      A                      A
 Frequencies --    125.6341               128.7876               139.0893
 Red. masses --      5.6914                 3.9510                 3.0248
 Frc consts  --      0.0529                 0.0386                 0.0345
 IR Inten    --      0.0751                 0.1956                 0.0038

                      7                      8                      9
                      A                      A                      A
 Frequencies --    187.9157               233.3567               234.4870
 Red. masses --      4.1017                 1.0761                 1.0611
 Frc consts  --      0.0853                 0.0345                 0.0344
 IR Inten    --      0.0034                 0.0004                 0.0105

                     10                     11                     12
                      A                      A                      A
 Frequencies --    245.3609               265.2837               266.8971
 Red. masses --      4.3482                 1.3108                 1.3473
 Frc consts  --      0.1542                 0.0544                 0.0565
 IR Inten    --      0.9101                 0.0136                 0.1862

                     13                     14                     15
                      A                      A                      A
 Frequencies --    284.9225               296.2997               316.9120
 Red. masses --      1.7177                 1.9012                 2.1740
 Frc consts  --      0.0822                 0.0983                 0.1286
 IR Inten    --      0.3365                 0.2066                 0.0008

                     16                     17                     18
                      A                      A                      A
 Frequencies --    328.5301               339.0981               343.3092
 Red. masses --      1.4017                 1.1831                 1.5158
 Frc consts  --      0.0891                 0.0802                 0.1053
 IR Inten    --      0.3459                 0.0576                 0.3496

                     19                     20                     21
                      A                      A                      A
 Frequencies --    362.2567               372.3163               386.8438
 Red. masses --      3.1423                 2.5937                 3.1072
 Frc consts  --      0.2430                 0.2118                 0.2740
 IR Inten    --      0.4624                 0.0433                 0.0690

                     22                     23                     24
                      A                      A                      A
 Frequencies --    391.4449               405.8450               464.0420
 Red. masses --      2.3394                 2.5790                 3.0431
 Frc consts  --      0.2112                 0.2503                 0.3861
 IR Inten    --      0.0000                 0.6361                 0.1506

                     25                     26                     27
                      A                      A                      A
 Frequencies --    523.7598               540.3741               552.7216
 Red. masses --      3.1643                 3.2259                 2.7058
 Frc consts  --      0.5114                 0.5550                 0.4870
 IR Inten    --      0.0582                 0.6473                 1.8818

                     28                     29                     30
                      A                      A                      A
 Frequencies --    576.1277               654.1401               729.2492
 Red. masses --      5.0133                 4.2931                 2.1693
 Frc consts  --      0.9804                 1.0823                 0.6797
 IR Inten    --      0.0094                 0.0281                 9.4720

                     31                     32                     33
                      A                      A                      A
 Frequencies --    761.0586               773.4820               851.4884
 Red. masses --      6.6028                 4.3299                 2.7686
 Frc consts  --      2.2533                 1.5263                 1.1827
 IR Inten    --     35.0730                 0.1197                24.8750

                     34                     35                     36
                      A                      A                      A
 Frequencies --    897.9639               913.2383               913.8020
 Red. masses --      1.6751                 1.4250                 2.6480
 Frc consts  --      0.7958                 0.7002                 1.3028
 IR Inten    --     18.1629                 0.0266                11.6555

                     37                     38                     39
                      A                      A                      A
 Frequencies --    921.4824               938.4082               939.1779
 Red. masses --      1.3937                 1.7047                 1.6698
 Frc consts  --      0.6972                 0.8845                 0.8678
 IR Inten    --      0.0008                 0.0001                 3.2651

                     40                     41                     42
                      A                      A                      A
 Frequencies --    948.7539               949.7819               967.8649
 Red. masses --      1.6726                 1.6806                 1.1978
 Frc consts  --      0.8870                 0.8932                 0.6611
 IR Inten    --      1.0813                 3.1508                 0.0715

                     43                     44                     45
                      A                      A                      A
 Frequencies --    968.2283              1018.7274              1049.4249
 Red. masses --      1.1977                 5.6125                 1.4214
 Frc consts  --      0.6615                 3.4318                 0.9223
 IR Inten    --      0.2404                 3.5026                 1.0397

                     46                     47                     48
                      A                      A                      A
 Frequencies --   1053.3343              1056.0054              1057.2886
 Red. masses --      1.4083                 1.3987                 1.3943
 Frc consts  --      0.9206                 0.9190                 0.9183
 IR Inten    --      0.1432                 0.0027                 0.0004

                     49                     50                     51
                      A                      A                      A
 Frequencies --   1147.6266              1167.1516              1171.6887
 Red. masses --      2.0305                 1.9045                 1.8285
 Frc consts  --      1.5757                 1.5286                 1.4790
 IR Inten    --      5.8016                 1.2616                 0.0403

                     52                     53                     54
                      A                      A                      A
 Frequencies --   1236.6608              1237.5436              1242.6135
 Red. masses --      2.7255                 2.7448                 2.5140
 Frc consts  --      2.4559                 2.4767                 2.2871
 IR Inten    --      5.7339                 0.3926                 1.8688

                     55                     56                     57
                      A                      A                      A
 Frequencies --   1243.1087              1281.1347              1310.0683
 Red. masses --      2.5588                 2.4456                 2.9329
 Frc consts  --      2.3297                 2.3649                 2.9658
 IR Inten    --      1.1602                48.6996                22.3371

                     58                     59                     60
                      A                      A                      A
 Frequencies --   1319.7984              1358.9361              1410.9068
 Red. masses --      1.7752                 3.2414                 1.2539
 Frc consts  --      1.8218                 3.5268                 1.4706
 IR Inten    --     15.0082                 2.9051                 6.3784

                     61                     62                     63
                      A                      A                      A
 Frequencies --   1412.5011              1413.6325              1413.8854
 Red. masses --      1.2159                 1.2153                 1.2464
 Frc consts  --      1.4293                 1.4308                 1.4680
 IR Inten    --      3.2857                 5.3299                 2.6865

                     64                     65                     66
                      A                      A                      A
 Frequencies --   1444.6662              1445.2914              1463.9301
 Red. masses --      1.2204                 1.2205                 2.8815
 Frc consts  --      1.5007                 1.5021                 3.6384
 IR Inten    --      3.9531                 0.4120                27.6582

                     67                     68                     69
                      A                      A                      A
 Frequencies --   1484.5780              1496.0559              1496.6884
 Red. masses --      2.3591                 1.0489                 1.0489
 Frc consts  --      3.0634                 1.3832                 1.3843
 IR Inten    --     10.0889                 0.0036                 0.0218

                     70                     71                     72
                      A                      A                      A
 Frequencies --   1500.3099              1500.5968              1505.3577
 Red. masses --      1.0446                 1.0448                 1.0611
 Frc consts  --      1.3854                 1.3861                 1.4167
 IR Inten    --      0.0002                 0.0932                 1.2439

                     73                     74                     75
                      A                      A                      A
 Frequencies --   1506.8483              1519.2394              1520.3522
 Red. masses --      1.1139                 1.0613                 1.0972
 Frc consts  --      1.4901                 1.4433                 1.4942
 IR Inten    --      2.7000                 2.3109                 5.8189

                     76                     77                     78
                      A                      A                      A
 Frequencies --   1521.9633              1522.7193              1536.0442
 Red. masses --      1.0505                 1.0506                 1.0700
 Frc consts  --      1.4337                 1.4352                 1.4875
 IR Inten    --      9.6307                 0.3130                14.3155

                     79                     80                     81
                      A                      A                      A
 Frequencies --   1536.3258              1620.4314              1653.5509
 Red. masses --      1.0695                 5.7420                 5.9425
 Frc consts  --      1.4873                 8.8833                 9.5731
 IR Inten    --      3.2874                79.5495                40.7062

                     82                     83                     84
                      A                      A                      A
 Frequencies --   3041.2350              3041.5294              3041.7447
 Red. masses --      1.0348                 1.0350                 1.0348
 Frc consts  --      5.6393                 5.6415                 5.6412
 IR Inten    --     23.7105                19.7491                22.5296

                     85                     86                     87
                      A                      A                      A
 Frequencies --   3041.8410              3048.8180              3049.0355
 Red. masses --      1.0352                 1.0363                 1.0363
 Frc consts  --      5.6433                 5.6756                 5.6760
 IR Inten    --     31.0673                32.2954                13.8802

                     88                     89                     90
                      A                      A                      A
 Frequencies --   3112.4550              3112.5962              3113.0764
 Red. masses --      1.1023                 1.1024                 1.1025
 Frc consts  --      6.2917                 6.2929                 6.2955
 IR Inten    --      0.9774                 4.4210                 2.1891

                     91                     92                     93
                      A                      A                      A
 Frequencies --   3113.3086              3117.2694              3118.6021
 Red. masses --      1.1025                 1.1028                 1.1030
 Frc consts  --      6.2962                 6.3138                 6.3205
 IR Inten    --      6.0753                23.9447                21.5025

                     94                     95                     96
                      A                      A                      A
 Frequencies --   3120.4066              3120.8913              3124.5758
 Red. masses --      1.1017                 1.1015                 1.1024
 Frc consts  --      6.3200                 6.3214                 6.3411
 IR Inten    --    132.5938                49.7351                18.4562

                     97                     98                     99
                      A                      A                      A
 Frequencies --   3125.3479              3126.8128              3127.9950
 Red. masses --      1.1023                 1.1017                 1.1016
 Frc consts  --      6.3440                 6.3465                 6.3502
 IR Inten    --     15.8352                37.7709                44.4783

                    100                    101                    102
                      A                      A                      A
 Frequencies --   3220.2215              3229.9640              3245.4737
 Red. masses --      1.0905                 1.0879                 1.0903
 Frc consts  --      6.6629                 6.6873                 6.7666
 IR Inten    --      2.5859                 7.3502                 0.3691

 - Thermochemistry -
 -------------------
 Temperature   298.150 Kelvin.  Pressure   1.00000 Atm.
 Atom     1 has atomic number  6 and mass  12.00000

 Molecular mass:   268.08266 amu.
 Principal axes and moments of inertia in atomic units:
                           1         2         3
     Eigenvalues --  4344.693335142.425638688.90367
           X            0.97857   0.20591  -0.00000
           Y           -0.20591   0.97857   0.00000
           Z            0.00000  -0.00000   1.00000
 This molecule is an asymmetric top.
 Rotational symmetry number  1.
 Warning -- assumption of classical behavior for rotation
           may cause significant error
 Rotational temperatures (Kelvin)      0.01994     0.01684     0.00997
 Rotational constants (GHZ):           0.41539     0.35095     0.20771
 Zero-point vibrational energy     830590.9 (Joules/Mol)
                                  198.51598 (Kcal/Mol)
 Warning -- explicit consideration of  28 degrees of freedom as
           vibrations may cause significant error
 Vibrational temperatures:     50.51    52.83   118.27   180.76   185.30
          (Kelvin)            200.12   270.37   335.75   337.37   353.02
                              381.68   384.01   409.94   426.31   455.97
                              472.68   487.89   493.95   521.21   535.68
                              556.58   563.20   583.92   667.65   753.57
                              777.48   795.24   828.92   941.16  1049.23
                             1094.99  1112.87  1225.10  1291.97  1313.95
                             1314.76  1325.81  1350.16  1351.27  1365.05
                             1366.52  1392.54  1393.06  1465.72  1509.89
                             1515.51  1519.36  1521.20  1651.18  1679.27
                             1685.80  1779.28  1780.55  1787.84  1788.56
                             1843.27  1884.90  1898.90  1955.21  2029.98
                             2032.27  2033.90  2034.27  2078.55  2079.45
                             2106.27  2135.98  2152.49  2153.40  2158.61
                             2159.02  2165.87  2168.02  2185.85  2187.45
                             2189.77  2190.85  2210.03  2210.43  2331.44
                             2379.09  4375.66  4376.08  4376.39  4376.53
                             4386.57  4386.88  4478.13  4478.33  4479.02
                             4479.36  4485.06  4486.97  4489.57  4490.27
                             4495.57  4496.68  4498.79  4500.49  4633.18
                             4647.20  4669.51

 Zero-point correction=                           0.316355 (Hartree/Particle)
 Thermal correction to Energy=                    0.333147
 Thermal correction to Enthalpy=                  0.334091
 Thermal correction to Gibbs Free Energy=         0.272141
 Sum of electronic and zero-point Energies=          -3117.652938
 Sum of electronic and thermal Energies=             -3117.636146
 Sum of electronic and thermal Enthalpies=           -3117.635202
 Sum of electronic and thermal Free Energies=        -3117.697152

                     E (Thermal)             CV                S
                      KCal/Mol        Cal/Mol-Kelvin    Cal/Mol-Kelvin
 Total                  209.053             65.119            130.385
 Electronic               0.000              0.000              0.000
 Translational            0.889              2.981             42.657
 Rotational               0.889              2.981             33.628
 Vibrational            207.276             59.158             54.099
 Vibration     1          0.594              1.982              5.518
 Vibration     2          0.594              1.982              5.429
 Vibration     3          0.600              1.961              3.838
 Vibration     4          0.611              1.927              3.012
 Vibration     5          0.611              1.924              2.964
 Vibration     6          0.615              1.914              2.816
 Vibration     7          0.633              1.856              2.248
 Vibration     8          0.654              1.790              1.853
 Vibration     9          0.654              1.788              1.844
 Vibration    10          0.660              1.770              1.764
 Vibration    11          0.671              1.737              1.627
 Vibration    12          0.672              1.734              1.616
 Vibration    13          0.683              1.702              1.504
 Vibration    14          0.690              1.681              1.438
 Vibration    15          0.704              1.641              1.326
 Vibration    16          0.712              1.618              1.267
 Vibration    17          0.719              1.597              1.216
 Vibration    18          0.722              1.589              1.197
 Vibration    19          0.736              1.550              1.112
 Vibration    20          0.744              1.529              1.070
 Vibration    21          0.755              1.498              1.012
 Vibration    22          0.759              1.488              0.995
 Vibration    23          0.771              1.458              0.941
 Vibration    24          0.822              1.330              0.754
 Vibration    25          0.879              1.197              0.601
 Vibration    26          0.895              1.161              0.564
 Vibration    27          0.908              1.134              0.539
 Vibration    28          0.933              1.083              0.493

 Optimization completed.
    -- Stationary point found.
 Normal termination of Gaussian 16 at Tue Sep 17 09:53:53 2024.

 ----------------------------------------------------------------------
 #p M062X/def2tzvp geom=check guess=read scf(xqc,tight) integral(grid=u
 ltrafine) scrf(SMD, solvent=1,4-Dioxane) polar prop=efg volume
 ----------------------------------------------------------------------

 ---
 spe
 ---
 Structure from the checkpoint file:  "smiles_00109_conf_1.chk"
 Charge =  0 Multiplicity = 1

 SCF Done:  E(RM062X) =  -3120.29715824     A.U. after   11 cycles

  Exact polarizability:     247.555      -0.917     240.426       0.000      -0.000     157.821
 Approx polarizability:     259.411      -3.475     242.577       0.001      -0.000     182.378

 Normal termination of Gaussian 16 at Tue Sep 17 11:42:28 2024.
 Gaussian 16:  ES64L-G16RevC.02  7-Dec-2021

 ----------------------------------------------------------------------
 #p M062X/def2tzvp geom=check guess=read scf(xqc,tight) integral(grid=u
 ltrafine) scrf(SMD, solvent=1,4-Dioxane) nmr=giao
 ----------------------------------------------------------------------

 ---
 spe
 ---
 Structure from the checkpoint file:  "smiles_00109_conf_1.chk"
 Charge =  0 Multiplicity = 1

                         Standard orientation:
 ---------------------------------------------------------------------
 Center     Atomic      Atomic             Coordinates (Angstroms)
 Number     Number       Type             X           Y           Z
 ---------------------------------------------------------------------
      1          6           0       -0.219881    3.512200   -1.260435
      2          6           0       -0.799011    2.834342   -0.000004
      3          6           0       -2.322759    3.036831   -0.000331
      4          6           0       -0.220430    3.511846    1.260878
      5          6           0       -0.408642    1.349344   -0.000065
      6          6           0        0.951690    1.000087   -0.000044
      7          6           0        1.312006   -0.337234   -0.000024
      8         35           0        3.172639   -0.799307    0.000000
      9          6           0        0.367775   -1.362136   -0.000024
     10          6           0       -0.989896   -1.038533   -0.000045
     11          6           0       -2.088201   -2.111412   -0.000003
     12          6           0       -2.963254   -1.943183    1.260954
     13          6           0       -1.511127   -3.536016   -0.000118
     14          6           0       -2.963511   -1.943107   -1.260764
     15          6           0       -1.350477    0.319629   -0.000066
     16          1           0        0.870495    3.439567   -1.294865
     17          1           0       -0.615375    3.046513   -2.168369
     18          1           0       -0.485527    4.574609   -1.276219
     19          1           0       -2.790239    2.598572    0.886935
     20          1           0       -2.550144    4.107043   -0.000349
     21          1           0       -2.789838    2.598605   -0.887825
     22          1           0       -0.486059    4.574258    1.276857
     23          1           0        0.869931    3.439154    1.295744
     24          1           0       -0.616326    3.045899    2.168502
     25          1           0        1.723680    1.759487   -0.000033
     26          1           0        0.705476   -2.388886   -0.000020
     27          1           0       -2.362324   -2.056727    2.168441
     28          1           0       -3.754939   -2.699855    1.277188
     29          1           0       -3.439784   -0.959667    1.295518
     30          1           0       -0.898986   -3.725087   -0.887376
     31          1           0       -0.898899   -3.725205    0.887053
     32          1           0       -2.328480   -4.263326   -0.000119
     33          1           0       -2.362771   -2.056588   -2.168386
     34          1           0       -3.755185   -2.699792   -1.276879
     35          1           0       -3.440079   -0.959605   -1.295180
     36          1           0       -2.402667    0.570825   -0.000089
 ---------------------------------------------------------------------

 SCF Done:  E(RM062X) =  -3120.29715824     A.U. after    1 cycles

      1  C    Isotropic =   151.5802   Anisotropy =    46.9935

      2  C    Isotropic =   146.5440   Anisotropy =    16.0972

      3  C    Isotropic =   155.5486   Anisotropy =    35.4775

      4  C    Isotropic =   151.5744   Anisotropy =    46.9971

      5  C    Isotropic =     6.4080   Anisotropy =   230.9021

      6  C    Isotropic =    35.1183   Anisotropy =   173.8898

      7  C    Isotropic =    25.7197   Anisotropy =   128.7996

      8  Br   Isotropic =  2090.1772   Anisotropy =  1324.1872

      9  C    Isotropic =    39.3200   Anisotropy =   166.8629

     10  C    Isotropic =     6.0145   Anisotropy =   230.5899

     11  C    Isotropic =   145.8208   Anisotropy =    16.5044

     12  C    Isotropic =   151.5216   Anisotropy =    46.6618

     13  C    Isotropic =   155.5133   Anisotropy =    36.8305

     14  C    Isotropic =   151.5253   Anisotropy =    46.6594

     15  C    Isotropic =    41.5606   Anisotropy =   202.6934

     16  H    Isotropic =    30.3383   Anisotropy =     7.7766

     17  H    Isotropic =    30.8700   Anisotropy =     8.0081

     18  H    Isotropic =    30.7691   Anisotropy =     9.6622

     19  H    Isotropic =    30.3387   Anisotropy =     8.1183

     20  H    Isotropic =    30.7669   Anisotropy =     8.6759

     21  H    Isotropic =    30.3391   Anisotropy =     8.1180

     22  H    Isotropic =    30.7690   Anisotropy =     9.6629

     23  H    Isotropic =    30.3388   Anisotropy =     7.7756

     24  H    Isotropic =    30.8702   Anisotropy =     8.0071

     25  H    Isotropic =    23.7731   Anisotropy =    15.4106

     26  H    Isotropic =    23.9388   Anisotropy =    15.8549

     27  H    Isotropic =    30.8618   Anisotropy =     8.0397

     28  H    Isotropic =    30.7507   Anisotropy =     9.5953

     29  H    Isotropic =    30.3164   Anisotropy =     7.5814

     30  H    Isotropic =    30.3957   Anisotropy =     8.3542

     31  H    Isotropic =    30.3956   Anisotropy =     8.3542

     32  H    Isotropic =    30.7825   Anisotropy =     8.8066

     33  H    Isotropic =    30.8617   Anisotropy =     8.0402

     34  H    Isotropic =    30.7508   Anisotropy =     9.5949

     35  H    Isotropic =    30.3161   Anisotropy =     7.5821

     36  H    Isotropic =    23.7067   Anisotropy =    17.0976

 The electronic state is 1-A.
 Alpha  occ. eigenvalues -- -485.36997 -63.35473 -57.17415 -57.17184 -57.17178
 Alpha  occ. eigenvalues --  -10.59709 -10.55552 -10.55534 -10.55420 -10.55389
 Alpha  occ. eigenvalues --  -10.54523 -10.54468 -10.53807 -10.52211 -10.52207
 Alpha  occ. eigenvalues --  -10.52207 -10.52170 -10.52169 -10.52101  -9.02110
 Alpha  occ. eigenvalues --   -6.84504  -6.83648  -6.83631  -2.87880  -2.87570
 Alpha  occ. eigenvalues --   -2.87549  -2.86751  -2.86751  -0.98167  -0.93018
 Alpha  occ. eigenvalues --   -0.92018  -0.87450  -0.83150  -0.81167  -0.77519
 Alpha  occ. eigenvalues --   -0.77464  -0.77428  -0.77245  -0.70645  -0.68474
 Alpha  occ. eigenvalues --   -0.62771  -0.59955  -0.58869  -0.54503  -0.52727
 Alpha  occ. eigenvalues --   -0.52544  -0.50930  -0.50538  -0.49722  -0.48672
 Alpha  occ. eigenvalues --   -0.47447  -0.46832  -0.45463  -0.45028  -0.43974
 Alpha  occ. eigenvalues --   -0.43722  -0.43642  -0.43277  -0.42575  -0.42535
 Alpha  occ. eigenvalues --   -0.39785  -0.39218  -0.39176  -0.38700  -0.36957
 Alpha  occ. eigenvalues --   -0.36834  -0.36191  -0.34548  -0.29920  -0.28980
 Alpha virt. eigenvalues --    0.01378   0.01871   0.04072   0.05841   0.07618
 Alpha virt. eigenvalues --    0.09858   0.10630   0.10739   0.11115   0.11597
 Alpha virt. eigenvalues --    0.12590   0.12620   0.13375   0.13971   0.14453

 Mulliken charges:
               1
     1  C   -0.439887
     2  C   -0.061722
     3  C   -0.536669
     4  C   -0.439869
     5  C    0.112648
     6  C   -0.279150
     7  C    0.051076
     8  Br  -0.125752
     9  C   -0.202852
    10  C    0.147052
    11  C   -0.057982
    12  C   -0.439699
    13  C   -0.534731
    14  C   -0.439706
    15  C   -0.279591
    16  H    0.156239
    17  H    0.162963
    18  H    0.156684
    19  H    0.171633
    20  H    0.166617
    21  H    0.171657
    22  H    0.156681
    23  H    0.156242
    24  H    0.162958
    25  H    0.193535
    26  H    0.196260
    27  H    0.164412
    28  H    0.157039
    29  H    0.150327
    30  H    0.173903
    31  H    0.173894
    32  H    0.164813
    33  H    0.164413
    34  H    0.157041
    35  H    0.150324
    36  H    0.219198
 Sum of Mulliken charges =   0.00000

 Dipole moment (field-independent basis, Debye):
    X=             -2.8016    Y=              0.7450    Z=              0.0001  Tot=              2.8989
 Quadrupole moment (field-independent basis, Debye-Ang):
   XX=           -108.4759   YY=            -99.2916   ZZ=           -110.4271
   XY=              2.5094   XZ=              0.0000   YZ=             -0.0000

 Normal termination of Gaussian 16 at Tue Sep 17 12:23:13 2024.
