 Gaussian 16, Revision C.02,

 ----------------------------------------------------------------------
 #p B3LYP/6-31G(d,p) EmpiricalDispersion=GD3BJ opt freq scf(xqc,tight)
 integral(grid=ultrafine)
 ----------------------------------------------------------------------

 ----------------------------------
 opt-freq conformers_unique/conf_ac
 ----------------------------------
 Symbolic Z-matrix:
 Charge =  0 Multiplicity = 1

 SCF Done:  E(RB3LYP) =  -3117.96706153     A.U. after   14 cycles
 SCF Done:  E(RB3LYP) =  -3117.96889664     A.U. after   10 cycles
 SCF Done:  E(RB3LYP) =  -3117.96896288     A.U. after    9 cycles
 SCF Done:  E(RB3LYP) =  -3117.96897070     A.U. after    8 cycles
 SCF Done:  E(RB3LYP) =  -3117.96897481     A.U. after    7 cycles
 Optimization completed.
    -- Stationary point found.
 Normal termination of Gaussian 16 at Tue Sep 17 09:48:21 2024.

 ----------------------------------------------------------------------
 #P Geom=AllCheck Guess=TCheck SCRF=Check GenChk RB3LYP/6-31G(d,p) Freq
 ----------------------------------------------------------------------

 Structure from the checkpoint file:  "smiles_00109_conf_2.chk"
 ----------------------------------
 opt-freq conformers_unique/conf_ac
 ----------------------------------
 Charge =  0 Multiplicity = 1

 SCF Done:  E(RB3LYP) =  -3117.96897481     A.U. after    1 cycles

                      1                      2                      3
                      A                      A                      A
 Frequencies --     32.8728                35.4476                84.0356
 Red. masses --      2.8842                 2.7488                 3.9989
 Frc consts  --      0.0018                 0.0020                 0.0166
 IR Inten    --      0.0432                 0.0011                 0.1280

                      4                      5                      6
                      A                      A                      A
 Frequencies --    124.3747               130.0785               130.8697
 Red. masses --      6.1744                 3.7817                 3.0871
 Frc consts  --      0.0563                 0.0377                 0.0312
 IR Inten    --      0.0478                 0.2965                 0.0000

                      7                      8                      9
                      A                      A                      A
 Frequencies --    194.0183               234.2830               235.2964
 Red. masses --      3.6644                 1.0698                 1.0694
 Frc consts  --      0.0813                 0.0346                 0.0349
 IR Inten    --      0.0029                 0.0001                 0.0023

                     10                     11                     12
                      A                      A                      A
 Frequencies --    250.4137               265.3005               267.6006
 Red. masses --      3.4042                 1.9620                 1.1884
 Frc consts  --      0.1258                 0.0814                 0.0501
 IR Inten    --      0.5956                 0.2199                 0.0364

                     13                     14                     15
                      A                      A                      A
 Frequencies --    284.9209               294.5700               321.3138
 Red. masses --      1.4325                 2.0533                 2.0014
 Frc consts  --      0.0685                 0.1050                 0.1217
 IR Inten    --      0.8362                 0.0210                 0.0008

                     16                     17                     18
                      A                      A                      A
 Frequencies --    328.4314               339.4231               340.5720
 Red. masses --      2.5665                 1.0896                 1.1643
 Frc consts  --      0.1631                 0.0740                 0.0796
 IR Inten    --      0.7941                 0.0256                 0.0003

                     19                     20                     21
                      A                      A                      A
 Frequencies --    356.6820               377.4797               386.0072
 Red. masses --      2.8599                 2.8437                 2.9215
 Frc consts  --      0.2144                 0.2387                 0.2565
 IR Inten    --      0.0023                 0.4960                 0.0315

                     22                     23                     24
                      A                      A                      A
 Frequencies --    390.6266               406.6467               463.4875
 Red. masses --      2.3420                 2.5496                 3.0955
 Frc consts  --      0.2106                 0.2484                 0.3918
 IR Inten    --      0.0002                 0.6989                 0.0406

                     25                     26                     27
                      A                      A                      A
 Frequencies --    523.7474               542.0597               551.7792
 Red. masses --      3.0930                 3.2982                 2.6960
 Frc consts  --      0.4999                 0.5710                 0.4836
 IR Inten    --      0.1365                 0.3006                 2.3600

                     28                     29                     30
                      A                      A                      A
 Frequencies --    572.2638               655.1688               729.0673
 Red. masses --      5.1432                 4.1954                 2.1775
 Frc consts  --      0.9924                 1.0610                 0.6820
 IR Inten    --      0.0014                 0.0000                 9.2371

                     31                     32                     33
                      A                      A                      A
 Frequencies --    762.4432               772.3328               850.4362
 Red. masses --      6.6745                 4.3425                 2.7587
 Frc consts  --      2.2860                 1.5261                 1.1755
 IR Inten    --     35.0159                 0.0217                21.5773

                     34                     35                     36
                      A                      A                      A
 Frequencies --    897.6714               914.6177               915.0486
 Red. masses --      1.6803                 1.4368                 2.6316
 Frc consts  --      0.7977                 0.7081                 1.2982
 IR Inten    --     18.3167                 0.0004                13.7889

                     37                     38                     39
                      A                      A                      A
 Frequencies --    919.6409               938.4707               939.0007
 Red. masses --      1.3796                 1.6969                 1.6770
 Frc consts  --      0.6874                 0.8805                 0.8712
 IR Inten    --      0.0324                 0.0246                 3.4214

                     40                     41                     42
                      A                      A                      A
 Frequencies --    948.6522               949.0667               967.7563
 Red. masses --      1.6822                 1.6828                 1.1977
 Frc consts  --      0.8920                 0.8930                 0.6609
 IR Inten    --      0.5424                 3.6274                 0.0781

                     43                     44                     45
                      A                      A                      A
 Frequencies --    968.1227              1019.8350              1049.9753
 Red. masses --      1.1977                 5.9176                 1.4089
 Frc consts  --      0.6614                 3.6262                 0.9151
 IR Inten    --      0.2173                 3.5795                 0.0202

                     46                     47                     48
                      A                      A                      A
 Frequencies --   1051.7029              1056.7654              1057.1332
 Red. masses --      1.3998                 1.3966                 1.3968
 Frc consts  --      0.9122                 0.9189                 0.9197
 IR Inten    --      1.3244                 0.0001                 0.0001

                     49                     50                     51
                      A                      A                      A
 Frequencies --   1144.7756              1170.2419              1171.8558
 Red. masses --      1.8909                 2.4719                 1.5719
 Frc consts  --      1.4601                 1.9945                 1.2718
 IR Inten    --      5.7056                 1.1448                 0.0559

                     52                     53                     54
                      A                      A                      A
 Frequencies --   1236.8874              1237.1119              1242.3820
 Red. masses --      2.7308                 2.7430                 2.6203
 Frc consts  --      2.4615                 2.4734                 2.3829
 IR Inten    --      5.0104                 1.5995                 3.3632

                     55                     56                     57
                      A                      A                      A
 Frequencies --   1242.9527              1281.4102              1314.4271
 Red. masses --      2.4792                 2.4052                 3.6646
 Frc consts  --      2.2567                 2.3269                 3.7304
 IR Inten    --      0.4300                41.9481                41.2815

                     58                     59                     60
                      A                      A                      A
 Frequencies --   1317.1835              1355.4928              1411.7270
 Red. masses --      1.7683                 2.7492                 1.2556
 Frc consts  --      1.8076                 2.9761                 1.4744
 IR Inten    --      4.0910                 0.8136                 9.4278

                     61                     62                     63
                      A                      A                      A
 Frequencies --   1413.2067              1413.2633              1413.4946
 Red. masses --      1.2156                 1.2440                 1.2155
 Frc consts  --      1.4303                 1.4639                 1.4308
 IR Inten    --      0.5516                 0.4565                 8.1959

                     64                     65                     66
                      A                      A                      A
 Frequencies --   1444.6374              1445.6845              1466.6216
 Red. masses --      1.2200                 1.2206                 3.1906
 Frc consts  --      1.5002                 1.5030                 4.0436
 IR Inten    --      3.5238                 0.1970                28.6374

                     67                     68                     69
                      A                      A                      A
 Frequencies --   1483.5849              1496.1343              1496.6482
 Red. masses --      2.0446                 1.0489                 1.0489
 Frc consts  --      2.6515                 1.3833                 1.3842
 IR Inten    --     10.0873                 0.0001                 0.0192

                     70                     71                     72
                      A                      A                      A
 Frequencies --   1500.1750              1500.5406              1504.7115
 Red. masses --      1.0447                 1.0447                 1.0461
 Frc consts  --      1.3852                 1.3860                 1.3955
 IR Inten    --      0.0207                 0.1680                 2.0697

                     73                     74                     75
                      A                      A                      A
 Frequencies --   1508.4632              1518.6670              1520.9534
 Red. masses --      1.1640                 1.0582                 1.1107
 Frc consts  --      1.5605                 1.4379                 1.5138
 IR Inten    --      2.5950                 5.6200                 2.2667

                     76                     77                     78
                      A                      A                      A
 Frequencies --   1521.5946              1522.9309              1535.5475
 Red. masses --      1.0509                 1.0502                 1.0647
 Frc consts  --      1.4335                 1.4351                 1.4792
 IR Inten    --      0.1508                10.6595                12.8874

                     79                     80                     81
                      A                      A                      A
 Frequencies --   1536.3030              1618.8512              1652.4073
 Red. masses --      1.0731                 5.6225                 5.9259
 Frc consts  --      1.4923                 8.6815                 9.5333
 IR Inten    --      3.8061                76.5811                44.6285

                     82                     83                     84
                      A                      A                      A
 Frequencies --   3041.2685              3041.4676              3041.5895
 Red. masses --      1.0349                 1.0349                 1.0352
 Frc consts  --      5.6395                 5.6403                 5.6423
 IR Inten    --     23.9630                22.9760                 4.6100

                     85                     86                     87
                      A                      A                      A
 Frequencies --   3041.6560              3048.7039              3048.9604
 Red. masses --      1.0352                 1.0363                 1.0363
 Frc consts  --      5.6427                 5.6752                 5.6760
 IR Inten    --     46.8451                32.4381                14.3971

                     88                     89                     90
                      A                      A                      A
 Frequencies --   3112.3551              3112.4334              3112.7744
 Red. masses --      1.1024                 1.1024                 1.1026
 Frc consts  --      6.2919                 6.2920                 6.2943
 IR Inten    --      0.0033                 6.4036                 1.7958

                     91                     92                     93
                      A                      A                      A
 Frequencies --   3113.0616              3117.6149              3117.8794
 Red. masses --      1.1025                 1.1028                 1.1029
 Frc consts  --      6.2954                 6.3152                 6.3167
 IR Inten    --      3.7715                 0.6840                47.8138

                     94                     95                     96
                      A                      A                      A
 Frequencies --   3120.1121              3120.6735              3125.1130
 Red. masses --      1.1017                 1.1016                 1.1024
 Frc consts  --      6.3190                 6.3206                 6.3432
 IR Inten    --    165.6152                19.3945                 2.8174

                     97                     98                     99
                      A                      A                      A
 Frequencies --   3125.2708              3127.7112              3127.9679
 Red. masses --      1.1024                 1.1016                 1.1016
 Frc consts  --      6.3438                 6.3495                 6.3501
 IR Inten    --     28.4381                 1.5822                80.4942

                    100                    101                    102
                      A                      A                      A
 Frequencies --   3219.4431              3220.3172              3260.2635
 Red. masses --      1.0905                 1.0907                 1.0877
 Frc consts  --      6.6592                 6.6644                 6.8117
 IR Inten    --      4.1790                 0.8827                 2.8555

 - Thermochemistry -
 -------------------
 Temperature   298.150 Kelvin.  Pressure   1.00000 Atm.
 Atom     1 has atomic number  6 and mass  12.00000

 Molecular mass:   268.08266 amu.
 Principal axes and moments of inertia in atomic units:
                           1         2         3
     Eigenvalues --  4405.840375074.193308682.09752
           X            0.05313   0.99859   0.00000
           Y            0.99859  -0.05313   0.00000
           Z           -0.00000  -0.00000   1.00000
 This molecule is an asymmetric top.
 Rotational symmetry number  1.
 Warning -- assumption of classical behavior for rotation
           may cause significant error
 Rotational temperatures (Kelvin)      0.01966     0.01707     0.00998
 Rotational constants (GHZ):           0.40962     0.35567     0.20787
 Zero-point vibrational energy     830597.2 (Joules/Mol)
                                  198.51751 (Kcal/Mol)
 Warning -- explicit consideration of  28 degrees of freedom as
           vibrations may cause significant error
 Vibrational temperatures:     47.30    51.00   120.91   178.95   187.15
          (Kelvin)            188.29   279.15   337.08   338.54   360.29
                              381.71   385.02   409.94   423.82   462.30
                              472.54   488.35   490.01   513.19   543.11
                              555.38   562.02   585.07   666.86   753.56
                              779.90   793.89   823.36   942.64  1048.97
                             1096.99  1111.21  1223.59  1291.55  1315.93
                             1316.55  1323.16  1350.25  1351.01  1364.90
                             1365.50  1392.39  1392.91  1467.32  1510.68
                             1513.17  1520.45  1520.98  1647.08  1683.72
                             1686.04  1779.61  1779.93  1787.51  1788.33
                             1843.66  1891.17  1895.13  1950.25  2031.16
                             2033.29  2033.37  2033.70  2078.51  2080.02
                             2110.14  2134.55  2152.60  2153.34  2158.42
                             2158.94  2164.94  2170.34  2185.02  2188.31
                             2189.24  2191.16  2209.31  2210.40  2329.17
                             2377.45  4375.71  4375.99  4376.17  4376.26
                             4386.40  4386.77  4477.98  4478.10  4478.59
                             4479.00  4485.55  4485.93  4489.15  4489.95
                             4496.34  4496.57  4500.08  4500.45  4632.06
                             4633.32  4690.79

 Zero-point correction=                           0.316358 (Hartree/Particle)
 Thermal correction to Energy=                    0.333151
 Thermal correction to Enthalpy=                  0.334095
 Thermal correction to Gibbs Free Energy=         0.272063
 Sum of electronic and zero-point Energies=          -3117.652617
 Sum of electronic and thermal Energies=             -3117.635824
 Sum of electronic and thermal Enthalpies=           -3117.634879
 Sum of electronic and thermal Free Energies=        -3117.696912

                     E (Thermal)             CV                S
                      KCal/Mol        Cal/Mol-Kelvin    Cal/Mol-Kelvin
 Total                  209.056             65.116            130.558
 Electronic               0.000              0.000              0.000
 Translational            0.889              2.981             42.657
 Rotational               0.889              2.981             33.628
 Vibrational            207.278             59.155             54.272
 Vibration     1          0.594              1.983              5.648
 Vibration     2          0.594              1.982              5.499
 Vibration     3          0.601              1.960              3.794
 Vibration     4          0.610              1.929              3.031
 Vibration     5          0.612              1.923              2.945
 Vibration     6          0.612              1.922              2.933
 Vibration     7          0.635              1.848              2.189
 Vibration     8          0.654              1.788              1.846
 Vibration     9          0.655              1.787              1.838
 Vibration    10          0.663              1.762              1.728
 Vibration    11          0.671              1.737              1.627
 Vibration    12          0.673              1.733              1.612
 Vibration    13          0.683              1.702              1.504
 Vibration    14          0.689              1.684              1.448
 Vibration    15          0.707              1.633              1.303
 Vibration    16          0.712              1.619              1.268
 Vibration    17          0.719              1.597              1.215
 Vibration    18          0.720              1.594              1.209
 Vibration    19          0.732              1.562              1.137
 Vibration    20          0.748              1.518              1.049
 Vibration    21          0.755              1.500              1.016
 Vibration    22          0.758              1.490              0.998
 Vibration    23          0.771              1.456              0.939
 Vibration    24          0.821              1.331              0.756
 Vibration    25          0.879              1.197              0.601
 Vibration    26          0.897              1.157              0.561
 Vibration    27          0.907              1.136              0.540
 Vibration    28          0.928              1.091              0.500

                           ! Non-Optimized Parameters !
 Normal termination of Gaussian 16 at Tue Sep 17 09:53:46 2024.

 ----------------------------------------------------------------------
 #p M062X/def2tzvp geom=check guess=read scf(xqc,tight) integral(grid=u
 ltrafine) scrf(SMD, solvent=1,4-Dioxane) polar prop=efg volume
 ----------------------------------------------------------------------

 ---
 spe
 ---
 Structure from the checkpoint file:  "smiles_00109_conf_2.chk"
 Charge =  0 Multiplicity = 1

 SCF Done:  E(RM062X) =  -3120.29679751     A.U. after   11 cycles

  Exact polarizability:     242.164       0.189     246.044      -0.001      -0.000     157.622
 Approx polarizability:     243.647       0.781     258.304      -0.002      -0.000     182.349

 Normal termination of Gaussian 16 at Tue Sep 17 11:41:41 2024.
 Gaussian 16:  ES64L-G16RevC.02  7-Dec-2021

 ----------------------------------------------------------------------
 #p M062X/def2tzvp geom=check guess=read scf(xqc,tight) integral(grid=u
 ltrafine) scrf(SMD, solvent=1,4-Dioxane) nmr=giao
 ----------------------------------------------------------------------

 ---
 spe
 ---
 Structure from the checkpoint file:  "smiles_00109_conf_2.chk"
 Charge =  0 Multiplicity = 1

                         Standard orientation:
 ---------------------------------------------------------------------
 Center     Atomic      Atomic             Coordinates (Angstroms)
 Number     Number       Type             X           Y           Z
 ---------------------------------------------------------------------
      1          6           0        2.563923    2.875863   -0.000692
      2          6           0        2.650813    1.341023   -0.000001
      3          6           0        3.425334    0.900664    1.260955
      4          6           0        3.426213    0.899671   -1.260058
      5          6           0        1.265496    0.677704   -0.000097
      6          6           0        1.178431   -0.720081   -0.000084
      7          6           0       -0.070485   -1.327025   -0.000010
      8         35           0       -0.172206   -3.241501   -0.000000
      9          6           0       -1.248066   -0.591179    0.000056
     10          6           0       -1.186540    0.807962    0.000050
     11          6           0       -2.493807    1.614254   -0.000001
     12          6           0       -3.311411    1.257605    1.260197
     13          6           0       -3.310755    1.258233   -1.260810
     14          6           0       -2.244925    3.131280    0.000483
     15          6           0        0.075229    1.415863   -0.000027
     16          1           0        3.572712    3.299452   -0.000767
     17          1           0        2.046111    3.252651   -0.888204
     18          1           0        2.045949    3.253476    0.886373
     19          1           0        4.418422    1.362297    1.277281
     20          1           0        2.892901    1.201054    2.168654
     21          1           0        3.559864   -0.183819    1.295409
     22          1           0        2.894424    1.199329   -2.168376
     23          1           0        3.560881   -0.184820   -1.293598
     24          1           0        4.419289    1.361338   -1.276027
     25          1           0        2.068459   -1.336929   -0.000100
     26          1           0       -2.198457   -1.110247    0.000087
     27          1           0       -3.560014    0.193443    1.293922
     28          1           0       -4.250082    1.821728    1.276181
     29          1           0       -2.750812    1.499470    2.168418
     30          1           0       -2.749672    1.500555   -2.168611
     31          1           0       -3.559268    0.194069   -1.295166
     32          1           0       -4.249434    1.822339   -1.277025
     33          1           0       -1.689940    3.451839   -0.886652
     34          1           0       -3.203209    3.659276    0.000545
     35          1           0       -1.690096    3.451271    0.887921
     36          1           0        0.132479    2.493744   -0.000041
 ---------------------------------------------------------------------

 SCF Done:  E(RM062X) =  -3120.29679751     A.U. after    1 cycles

      1  C    Isotropic =   155.3350   Anisotropy =    36.4936

      2  C    Isotropic =   146.8049   Anisotropy =    16.1422

      3  C    Isotropic =   151.2428   Anisotropy =    47.3400

      4  C    Isotropic =   151.2560   Anisotropy =    47.3265

      5  C    Isotropic =     6.1374   Anisotropy =   230.9329

      6  C    Isotropic =    35.6458   Anisotropy =   174.8412

      7  C    Isotropic =    25.3771   Anisotropy =   129.2161

      8  Br   Isotropic =  2088.0340   Anisotropy =  1317.7912

      9  C    Isotropic =    35.4810   Anisotropy =   174.3225

     10  C    Isotropic =     6.2567   Anisotropy =   231.3900

     11  C    Isotropic =   146.6413   Anisotropy =    16.2256

     12  C    Isotropic =   151.3611   Anisotropy =    47.0092

     13  C    Isotropic =   151.3507   Anisotropy =    47.0205

     14  C    Isotropic =   155.4318   Anisotropy =    36.2529

     15  C    Isotropic =    45.1976   Anisotropy =   195.3407

     16  H    Isotropic =    30.7582   Anisotropy =     8.7056

     17  H    Isotropic =    30.3641   Anisotropy =     8.0915

     18  H    Isotropic =    30.3633   Anisotropy =     8.0921

     19  H    Isotropic =    30.7465   Anisotropy =     9.6793

     20  H    Isotropic =    30.8620   Anisotropy =     7.9979

     21  H    Isotropic =    30.3405   Anisotropy =     7.7240

     22  H    Isotropic =    30.8617   Anisotropy =     8.0001

     23  H    Isotropic =    30.3391   Anisotropy =     7.7262

     24  H    Isotropic =    30.7467   Anisotropy =     9.6775

     25  H    Isotropic =    23.7996   Anisotropy =    15.4259

     26  H    Isotropic =    23.7970   Anisotropy =    15.4274

     27  H    Isotropic =    30.3441   Anisotropy =     7.7083

     28  H    Isotropic =    30.7583   Anisotropy =     9.6726

     29  H    Isotropic =    30.8543   Anisotropy =     7.9965

     30  H    Isotropic =    30.8545   Anisotropy =     7.9950

     31  H    Isotropic =    30.3452   Anisotropy =     7.7068

     32  H    Isotropic =    30.7582   Anisotropy =     9.6740

     33  H    Isotropic =    30.3502   Anisotropy =     8.1202

     34  H    Isotropic =    30.7765   Anisotropy =     8.6815

     35  H    Isotropic =    30.3508   Anisotropy =     8.1199

     36  H    Isotropic =    23.9041   Anisotropy =    17.2156

 The electronic state is 1-A.
 Alpha  occ. eigenvalues -- -485.37014 -63.35490 -57.17432 -57.17200 -57.17195
 Alpha  occ. eigenvalues --  -10.59736 -10.55524 -10.55523 -10.55386 -10.55386
 Alpha  occ. eigenvalues --  -10.54488 -10.54486 -10.53768 -10.52175 -10.52173
 Alpha  occ. eigenvalues --  -10.52145 -10.52145 -10.52145 -10.52144  -9.02127
 Alpha  occ. eigenvalues --   -6.84522  -6.83665  -6.83647  -2.87898  -2.87587
 Alpha  occ. eigenvalues --   -2.87566  -2.86767  -2.86767  -0.98154  -0.93012
 Alpha  occ. eigenvalues --   -0.91975  -0.87458  -0.83129  -0.81165  -0.77421
 Alpha  occ. eigenvalues --   -0.77409  -0.77398  -0.77317  -0.70620  -0.68532
 Alpha  occ. eigenvalues --   -0.62644  -0.59982  -0.58860  -0.54551  -0.52657
 Alpha  occ. eigenvalues --   -0.52551  -0.50970  -0.50417  -0.49424  -0.48517
 Alpha  occ. eigenvalues --   -0.47941  -0.46882  -0.45478  -0.44911  -0.43953
 Alpha  occ. eigenvalues --   -0.43950  -0.43524  -0.43029  -0.42528  -0.42522
 Alpha  occ. eigenvalues --   -0.39561  -0.39177  -0.39127  -0.38868  -0.37147
 Alpha  occ. eigenvalues --   -0.36600  -0.36308  -0.34570  -0.29635  -0.29178
 Alpha virt. eigenvalues --    0.01364   0.01877   0.03998   0.05959   0.07636
 Alpha virt. eigenvalues --    0.10099   0.10796   0.10994   0.11030   0.11488
 Alpha virt. eigenvalues --    0.12656   0.12813   0.13165   0.13766   0.13814

 Mulliken charges:
               1
     1  C   -0.535618
     2  C   -0.064314
     3  C   -0.438151
     4  C   -0.438192
     5  C    0.117408
     6  C   -0.276464
     7  C    0.047333
     8  Br  -0.126683
     9  C   -0.276571
    10  C    0.118157
    11  C   -0.063707
    12  C   -0.438269
    13  C   -0.438237
    14  C   -0.536128
    15  C   -0.173007
    16  H    0.167599
    17  H    0.171262
    18  H    0.171211
    19  H    0.156455
    20  H    0.162735
    21  H    0.155356
    22  H    0.162746
    23  H    0.155348
    24  H    0.156461
    25  H    0.193641
    26  H    0.193623
    27  H    0.155220
    28  H    0.156593
    29  H    0.162749
    30  H    0.162742
    31  H    0.155220
    32  H    0.156589
    33  H    0.171235
    34  H    0.167707
    35  H    0.171273
    36  H    0.216677
 Sum of Mulliken charges =  -0.00000

 Dipole moment (field-independent basis, Debye):
    X=              0.1503    Y=              2.8357    Z=              0.0000  Tot=              2.8397
 Quadrupole moment (field-independent basis, Debye-Ang):
   XX=            -98.6914   YY=           -108.9586   ZZ=           -110.4347
   XY=             -0.5612   XZ=             -0.0000   YZ=             -0.0001

 Normal termination of Gaussian 16 at Tue Sep 17 12:22:36 2024.
