 Gaussian 16, Revision C.02,

 ----------------------------------------------------------------------
 #p B3LYP/6-31G(d,p) EmpiricalDispersion=GD3BJ opt freq scf(xqc,tight)
 integral(grid=ultrafine)
 ----------------------------------------------------------------------

 ----------------------------------
 opt-freq conformers_unique/conf_aa
 ----------------------------------
 Symbolic Z-matrix:
 Charge =  0 Multiplicity = 1

 SCF Done:  E(RB3LYP) =  -2973.08220512     A.U. after   14 cycles
 SCF Done:  E(RB3LYP) =  -2973.08346284     A.U. after   12 cycles
 SCF Done:  E(RB3LYP) =  -2973.08350046     A.U. after    9 cycles
 SCF Done:  E(RB3LYP) =  -2973.08350283     A.U. after    8 cycles
 Optimization completed.
    -- Stationary point found.
 Normal termination of Gaussian 16 at Tue Sep 17 09:46:26 2024.

 ----------------------------------------------------------------------
 #P Geom=AllCheck Guess=TCheck SCRF=Check GenChk RB3LYP/6-31G(d,p) Freq
 ----------------------------------------------------------------------

 Structure from the checkpoint file:  "smiles_00108_conf_0.chk"
 ----------------------------------
 opt-freq conformers_unique/conf_aa
 ----------------------------------
 Charge =  0 Multiplicity = 1

 SCF Done:  E(RB3LYP) =  -2973.08350283     A.U. after    1 cycles

                      1                      2                      3
                      A                      A                      A
 Frequencies --     91.7638               177.2028               181.9402
 Red. masses --      6.4526                 4.1250                 7.3535
 Frc consts  --      0.0320                 0.0763                 0.1434
 IR Inten    --      0.1150                 3.3125                 0.4576

                      4                      5                      6
                      A                      A                      A
 Frequencies --    268.7354               273.1249               411.5112
 Red. masses --      4.9635                15.2541                 3.6837
 Frc consts  --      0.2112                 0.6704                 0.3675
 IR Inten    --      0.1269                 1.0950                 2.2324

                      7                      8                      9
                      A                      A                      A
 Frequencies --    414.2230               489.9647               523.7787
 Red. masses --      4.3282                 2.8156                 4.1317
 Frc consts  --      0.4376                 0.3982                 0.6678
 IR Inten    --      6.5233                 4.4016                 2.0550

                     10                     11                     12
                      A                      A                      A
 Frequencies --    540.9984               601.4043               638.1084
 Red. masses --      6.9623                 7.6726                 7.7959
 Frc consts  --      1.2006                 1.6350                 1.8703
 IR Inten    --      0.5537                12.4376                 5.8163

                     13                     14                     15
                      A                      A                      A
 Frequencies --    649.7164               784.2783               785.6987
 Red. masses --      3.2145                 1.7839                 5.1172
 Frc consts  --      0.7995                 0.6465                 1.8612
 IR Inten    --      0.0188                 3.6798                 0.2519

                     16                     17                     18
                      A                      A                      A
 Frequencies --    812.2590               859.1895               862.5294
 Red. masses --      1.6206                 1.7993                 6.5188
 Frc consts  --      0.6300                 0.7826                 2.8573
 IR Inten    --      9.7863                34.6254                37.0624

                     19                     20                     21
                      A                      A                      A
 Frequencies --    910.8384               954.7376               969.0177
 Red. masses --      1.4905                 5.3186                 1.4048
 Frc consts  --      0.7285                 2.8564                 0.7772
 IR Inten    --     16.2444                 9.4589                 0.3117

                     22                     23                     24
                      A                      A                      A
 Frequencies --    994.6285               999.4880              1060.3888
 Red. masses --      1.3205                 1.3421                 2.5192
 Frc consts  --      0.7697                 0.7899                 1.6689
 IR Inten    --      0.1639                 1.2462                 3.3424

                     25                     26                     27
                      A                      A                      A
 Frequencies --   1084.8822              1151.0821              1172.0702
 Red. masses --      2.1954                 1.4807                 1.1536
 Frc consts  --      1.5224                 1.1559                 0.9337
 IR Inten    --     18.8017                10.2077                 0.5113

                     28                     29                     30
                      A                      A                      A
 Frequencies --   1231.6047              1268.6103              1283.2938
 Red. masses --      2.6207                 1.8998                 1.5711
 Frc consts  --      2.3421                 1.8015                 1.5244
 IR Inten    --     16.2533                 2.7630                 1.4341

                     31                     32                     33
                      A                      A                      A
 Frequencies --   1371.9534              1389.5166              1411.4972
 Red. masses --      3.5913                 2.1698                 4.7143
 Frc consts  --      3.9828                 2.4683                 5.5338
 IR Inten    --     13.5337                 9.0296                 2.9234

                     34                     35                     36
                      A                      A                      A
 Frequencies --   1464.4512              1499.9109              1539.0811
 Red. masses --      2.2713                 2.6638                 3.7621
 Frc consts  --      2.8700                 3.5309                 5.2505
 IR Inten    --      0.2111                 6.3527                56.4726

                     37                     38                     39
                      A                      A                      A
 Frequencies --   1613.5397              1649.0121              1667.0935
 Red. masses --      6.9880                 5.8056                 6.5763
 Frc consts  --     10.7192                 9.3014                10.7684
 IR Inten    --      7.2942                37.3995                 1.6570

                     40                     41                     42
                      A                      A                      A
 Frequencies --   3159.5859              3186.3717              3208.3084
 Red. masses --      1.0896                 1.0893                 1.0919
 Frc consts  --      6.4087                 6.5161                 6.6218
 IR Inten    --     27.6754                 6.4516                 2.1126

                     43                     44                     45
                      A                      A                      A
 Frequencies --   3212.4735              3212.6402              3227.9145
 Red. masses --      1.0957                 1.0889                 1.0963
 Frc consts  --      6.6620                 6.6213                 6.7299
 IR Inten    --     17.4991                 1.1626                 3.2436

 - Thermochemistry -
 -------------------
 Temperature   298.150 Kelvin.  Pressure   1.00000 Atm.
 Atom     1 has atomic number 35 and mass  78.91834

 Molecular mass:   206.96836 amu.
 Principal axes and moments of inertia in atomic units:
                           1         2         3
     Eigenvalues --   664.126324688.773535352.89985
           X            0.99989   0.01460  -0.00015
           Y           -0.01460   0.99989   0.00007
           Z            0.00015  -0.00007   1.00000
 This molecule is an asymmetric top.
 Rotational symmetry number  1.
 Warning -- assumption of classical behavior for rotation
           may cause significant error
 Rotational temperatures (Kelvin)      0.13042     0.01847     0.01618
 Rotational constants (GHZ):           2.71747     0.38491     0.33715
 Zero-point vibrational energy     330530.7 (Joules/Mol)
                                   78.99874 (Kcal/Mol)
 Warning -- explicit consideration of  11 degrees of freedom as
           vibrations may cause significant error
 Vibrational temperatures:    132.03   254.96   261.77   386.65   392.97
          (Kelvin)            592.07   595.97   704.95   753.60   778.38
                              865.29   918.10   934.80  1128.40  1130.45
                             1168.66  1236.18  1240.99  1310.49  1373.65
                             1394.20  1431.05  1438.04  1525.66  1560.90
                             1656.15  1686.35  1772.00  1825.25  1846.37
                             1973.93  1999.20  2030.83  2107.02  2158.04
                             2214.39  2321.52  2372.56  2398.58  4545.94
                             4584.48  4616.04  4622.03  4622.27  4644.25

 Zero-point correction=                           0.125892 (Hartree/Particle)
 Thermal correction to Energy=                    0.133998
 Thermal correction to Enthalpy=                  0.134942
 Thermal correction to Gibbs Free Energy=         0.091524
 Sum of electronic and zero-point Energies=          -2972.957610
 Sum of electronic and thermal Energies=             -2972.949505
 Sum of electronic and thermal Enthalpies=           -2972.948561
 Sum of electronic and thermal Free Energies=        -2972.991979

                     E (Thermal)             CV                S
                      KCal/Mol        Cal/Mol-Kelvin    Cal/Mol-Kelvin
 Total                   84.085             31.976             91.382
 Electronic               0.000              0.000              0.000
 Translational            0.889              2.981             41.886
 Rotational               0.889              2.981             31.189
 Vibrational             82.308             26.014             18.306
 Vibration     1          0.602              1.955              3.622
 Vibration     2          0.628              1.870              2.358
 Vibration     3          0.630              1.864              2.308
 Vibration     4          0.673              1.731              1.604
 Vibration     5          0.676              1.723              1.576
 Vibration     6          0.775              1.445              0.921
 Vibration     7          0.778              1.439              0.912
 Vibration     8          0.846              1.272              0.684
 Vibration     9          0.879              1.197              0.601
 Vibration    10          0.896              1.159              0.563
 Vibration    11          0.960              1.029              0.447

 Optimization completed.
    -- Stationary point found.
 Normal termination of Gaussian 16 at Tue Sep 17 09:47:31 2024.

 ----------------------------------------------------------------------
 #p M062X/def2tzvp geom=check guess=read scf(xqc,tight) integral(grid=u
 ltrafine) scrf(SMD, solvent=1,4-Dioxane) polar prop=efg volume
 ----------------------------------------------------------------------

 ---
 spe
 ---
 Structure from the checkpoint file:  "smiles_00108_conf_0.chk"
 Charge =  0 Multiplicity = 1

 SCF Done:  E(RM062X) =  -2975.50766313     A.U. after   13 cycles

  Exact polarizability:     242.336      10.713     150.654       0.024      -0.004      76.401
 Approx polarizability:     248.441       9.061     181.425       0.022      -0.004      96.881

 Normal termination of Gaussian 16 at Tue Sep 17 10:27:25 2024.
 Gaussian 16:  ES64L-G16RevC.02  7-Dec-2021

 ----------------------------------------------------------------------
 #p M062X/def2tzvp geom=check guess=read scf(xqc,tight) integral(grid=u
 ltrafine) scrf(SMD, solvent=1,4-Dioxane) nmr=giao
 ----------------------------------------------------------------------

 ---
 spe
 ---
 Structure from the checkpoint file:  "smiles_00108_conf_0.chk"
 Charge =  0 Multiplicity = 1

                         Standard orientation:
 ---------------------------------------------------------------------
 Center     Atomic      Atomic             Coordinates (Angstroms)
 Number     Number       Type             X           Y           Z
 ---------------------------------------------------------------------
      1         35           0        2.901137   -0.238812    0.000436
      2          6           0        1.031756    0.151405    0.000141
      3          6           0        0.627041    1.506863   -0.000010
      4          6           0       -0.713137    1.812810   -0.000224
      5          6           0       -1.693575    0.786939   -0.000290
      6          7           0       -3.009517    1.145034   -0.000520
      7          6           0       -3.905982    0.179120   -0.000607
      8          6           0       -3.589156   -1.202794   -0.000433
      9          6           0       -2.268307   -1.579381   -0.000217
     10          6           0       -1.264882   -0.578140   -0.000142
     11          6           0        0.121138   -0.876602    0.000080
     12          1           0        1.378786    2.287099    0.000047
     13          1           0       -1.058194    2.840821   -0.000344
     14          1           0       -4.949820    0.488765   -0.000735
     15          1           0       -4.385945   -1.938927   -0.000475
     16          1           0       -1.979023   -2.626538   -0.000092
     17          1           0        0.451629   -1.909384    0.000201
 ---------------------------------------------------------------------

 SCF Done:  E(RM062X) =  -2975.50766313     A.U. after    1 cycles

      1  Br   Isotropic =  2080.8917   Anisotropy =  1290.6954

      2  C    Isotropic =    27.2084   Anisotropy =   141.1568

      3  C    Isotropic =    29.8549   Anisotropy =   180.6928

      4  C    Isotropic =    30.2622   Anisotropy =   187.2454

      5  C    Isotropic =    13.9914   Anisotropy =   231.3967

      6  N    Isotropic =  -138.7086   Anisotropy =   622.4201

      7  C    Isotropic =     9.5596   Anisotropy =   206.6854

      8  C    Isotropic =    42.0624   Anisotropy =   201.2940

      9  C    Isotropic =    26.0332   Anisotropy =   215.2385

     10  C    Isotropic =    34.5527   Anisotropy =   235.6971

     11  C    Isotropic =    33.2579   Anisotropy =   161.5855

     12  H    Isotropic =    23.2452   Anisotropy =    11.1775

     13  H    Isotropic =    22.7595   Anisotropy =     7.7249

     14  H    Isotropic =    21.9531   Anisotropy =     7.3991

     15  H    Isotropic =    23.5530   Anisotropy =     7.1811

     16  H    Isotropic =    22.8036   Anisotropy =     9.3475

     17  H    Isotropic =    23.0475   Anisotropy =    12.4117

 The electronic state is 1-A.
 Alpha  occ. eigenvalues -- -485.37897 -63.36374 -57.18319 -57.18083 -57.18076
 Alpha  occ. eigenvalues --  -14.75727 -10.60991 -10.58907 -10.58575 -10.57036
 Alpha  occ. eigenvalues --  -10.56849 -10.56413 -10.56281 -10.55710 -10.55565
 Alpha  occ. eigenvalues --   -9.03017  -6.85424  -6.84551  -6.84528  -2.88801
 Alpha  occ. eigenvalues --   -2.88485  -2.88458  -2.87645  -2.87644  -1.06303
 Alpha  occ. eigenvalues --   -0.97789  -0.91868  -0.89804  -0.85216  -0.82493
 Alpha  occ. eigenvalues --   -0.73765  -0.71465  -0.69682  -0.61350  -0.59494
 Alpha  occ. eigenvalues --   -0.58066  -0.52835  -0.51981  -0.50730  -0.50033
 Alpha  occ. eigenvalues --   -0.48196  -0.47472  -0.44131  -0.43006  -0.41779
 Alpha  occ. eigenvalues --   -0.37906  -0.36874  -0.35533  -0.33473  -0.30709
 Alpha  occ. eigenvalues --   -0.28977
 Alpha virt. eigenvalues --   -0.03849  -0.00360   0.03341   0.03345   0.08998
 Alpha virt. eigenvalues --    0.10440   0.10642   0.11266   0.12223   0.12956
 Alpha virt. eigenvalues --    0.13767   0.15078   0.17510   0.18464   0.19117

 Mulliken charges:
               1
     1  Br  -0.106921
     2  C    0.051709
     3  C   -0.147732
     4  C   -0.228895
     5  C    0.175827
     6  N   -0.248742
     7  C   -0.061105
     8  C   -0.165348
     9  C   -0.161744
    10  C    0.071878
    11  C   -0.209613
    12  H    0.182412
    13  H    0.171713
    14  H    0.162547
    15  H    0.167304
    16  H    0.165077
    17  H    0.181631
 Sum of Mulliken charges =  -0.00000

 Dipole moment (field-independent basis, Debye):
    X=             -1.4590    Y=             -1.9879    Z=             -0.0000  Tot=              2.4658
 Quadrupole moment (field-independent basis, Debye-Ang):
   XX=            -71.8615   YY=            -69.3477   ZZ=            -80.0589
   XY=              9.1149   XZ=              0.0004   YZ=              0.0005

 Normal termination of Gaussian 16 at Tue Sep 17 10:41:26 2024.
