 Gaussian 16, Revision C.02,

 ----------------------------------------------------------------------
 #p B3LYP/6-31G(d,p) EmpiricalDispersion=GD3BJ opt freq scf(xqc,tight)
 integral(grid=ultrafine)
 ----------------------------------------------------------------------

 ----------------------------------
 opt-freq conformers_unique/conf_ab
 ----------------------------------
 Symbolic Z-matrix:
 Charge =  0 Multiplicity = 1

 SCF Done:  E(RB3LYP) =  -3031.24483109     A.U. after   15 cycles
 SCF Done:  E(RB3LYP) =  -3031.24603226     A.U. after   12 cycles
 SCF Done:  E(RB3LYP) =  -3031.24615089     A.U. after   11 cycles
 SCF Done:  E(RB3LYP) =  -3031.24616543     A.U. after    9 cycles
 SCF Done:  E(RB3LYP) =  -3031.24616628     A.U. after    8 cycles
 SCF Done:  E(RB3LYP) =  -3031.24616545     A.U. after    8 cycles
 SCF Done:  E(RB3LYP) =  -3031.24616511     A.U. after    9 cycles
 SCF Done:  E(RB3LYP) =  -3031.24616626     A.U. after    8 cycles
 Optimization completed.
    -- Stationary point found.
 Normal termination of Gaussian 16 at Tue Sep 17 09:45:50 2024.

 ----------------------------------------------------------------------
 #P Geom=AllCheck Guess=TCheck SCRF=Check GenChk RB3LYP/6-31G(d,p) Freq
 ----------------------------------------------------------------------

 Structure from the checkpoint file:  "smiles_00118_conf_1.chk"
 ----------------------------------
 opt-freq conformers_unique/conf_ab
 ----------------------------------
 Charge =  0 Multiplicity = 1

 SCF Done:  E(RB3LYP) =  -3031.24616626     A.U. after    1 cycles

                      1                      2                      3
                      A                      A                      A
 Frequencies --     70.1164               117.0628               137.4966
 Red. masses --      4.3384                 4.5842                13.1446
 Frc consts  --      0.0126                 0.0370                 0.1464
 IR Inten    --      0.0960                 9.8534                 3.3940

                      4                      5                      6
                      A                      A                      A
 Frequencies --    161.1319               171.1952               193.8763
 Red. masses --      4.5162                 5.2985                 2.3951
 Frc consts  --      0.0691                 0.0915                 0.0530
 IR Inten    --      0.3599                 0.0181                 2.1234

                      7                      8                      9
                      A                      A                      A
 Frequencies --    258.0241               287.0834               323.6727
 Red. masses --      1.1908                 5.3851                 6.9326
 Frc consts  --      0.0467                 0.2615                 0.4279
 IR Inten    --      0.2667                 6.0735                 1.4045

                     10                     11                     12
                      A                      A                      A
 Frequencies --    369.6728               424.1016               464.1454
 Red. masses --      4.0124                 5.8753                 3.2817
 Frc consts  --      0.3231                 0.6226                 0.4165
 IR Inten    --      2.2340                10.9449                 2.1109

                     13                     14                     15
                      A                      A                      A
 Frequencies --    522.4607               576.7613               647.5329
 Red. masses --      5.4604                 3.5521                 5.6089
 Frc consts  --      0.8782                 0.6962                 1.3857
 IR Inten    --      1.0957                 1.8755                39.7362

                     16                     17                     18
                      A                      A                      A
 Frequencies --    680.0441               749.4789               780.8380
 Red. masses --      7.1267                 3.3015                 5.0279
 Frc consts  --      1.9418                 1.0926                 1.8062
 IR Inten    --     29.0104                 0.1404                 3.8364

                     19                     20                     21
                      A                      A                      A
 Frequencies --    831.2975               917.2241               943.6660
 Red. masses --      1.5856                 6.0696                 1.3369
 Frc consts  --      0.6456                 3.0086                 0.7014
 IR Inten    --     36.0422                26.0220                 3.3944

                     22                     23                     24
                      A                      A                      A
 Frequencies --    960.1807              1031.2085              1049.5247
 Red. masses --      1.3503                 1.7877                 3.7732
 Frc consts  --      0.7335                 1.1201                 2.4488
 IR Inten    --      4.5759                 0.2938                14.6366

                     25                     26                     27
                      A                      A                      A
 Frequencies --   1082.7926              1176.8254              1177.5056
 Red. masses --      3.7091                 1.3146                 1.2724
 Frc consts  --      2.5622                 1.0727                 1.0394
 IR Inten    --     80.9494                24.1214                 0.7713

                     28                     29                     30
                      A                      A                      A
 Frequencies --   1213.5163              1218.1040              1291.2289
 Red. masses --      1.3473                 2.3969                 1.5567
 Frc consts  --      1.1690                 2.0954                 1.5292
 IR Inten    --      2.4073               153.9176                23.6813

                     31                     32                     33
                      A                      A                      A
 Frequencies --   1321.3592              1368.7908              1428.1702
 Red. masses --      3.8700                 5.7225                 1.8716
 Frc consts  --      3.9811                 6.3170                 2.2492
 IR Inten    --    314.8212                28.9332                31.6137

                     34                     35                     36
                      A                      A                      A
 Frequencies --   1456.8542              1486.3987              1506.8215
 Red. masses --      2.0805                 1.2763                 1.0460
 Frc consts  --      2.6016                 1.6614                 1.3992
 IR Inten    --      8.6784                26.4883                 7.0045

                     37                     38                     39
                      A                      A                      A
 Frequencies --   1516.0274              1542.2014              1612.2903
 Red. masses --      1.0714                 2.8346                 6.3244
 Frc consts  --      1.4508                 3.9721                 9.6863
 IR Inten    --     44.6322                58.9233                63.6023

                     40                     41                     42
                      A                      A                      A
 Frequencies --   1651.8516              1795.0941              2897.8377
 Red. masses --      6.1975                 9.8426                 1.0836
 Frc consts  --      9.9634                18.6867                 5.3611
 IR Inten    --    161.1422               255.8237               147.6098

                     43                     44                     45
                      A                      A                      A
 Frequencies --   3029.3685              3097.4991              3166.8948
 Red. masses --      1.0342                 1.1068                 1.1010
 Frc consts  --      5.5917                 6.2567                 6.5061
 IR Inten    --     50.6249                31.6229                15.1987

                     46                     47                     48
                      A                      A                      A
 Frequencies --   3185.4272              3227.6103              3232.1628
 Red. masses --      1.0897                 1.0915                 1.0915
 Frc consts  --      6.5147                 6.6991                 6.7183
 IR Inten    --      6.6266                 1.5402                 8.1534

 - Thermochemistry -
 -------------------
 Temperature   298.150 Kelvin.  Pressure   1.00000 Atm.
 Atom     1 has atomic number  6 and mass  12.00000

 Molecular mass:   213.96294 amu.
 Principal axes and moments of inertia in atomic units:
                           1         2         3
     Eigenvalues --  1771.276213132.460894892.20481
           X            0.99596  -0.08975  -0.00000
           Y            0.08975   0.99596  -0.00001
           Z            0.00000   0.00001   1.00000
 This molecule is an asymmetric top.
 Rotational symmetry number  1.
 Warning -- assumption of classical behavior for rotation
           may cause significant error
 Rotational temperatures (Kelvin)      0.04890     0.02765     0.01770
 Rotational constants (GHZ):           1.01889     0.57614     0.36890
 Zero-point vibrational energy     349013.1 (Joules/Mol)
                                   83.41613 (Kcal/Mol)
 Warning -- explicit consideration of  14 degrees of freedom as
           vibrations may cause significant error
 Vibrational temperatures:    100.88   168.43   197.83   231.83   246.31
          (Kelvin)            278.94   371.24   413.05   465.69   531.88
                              610.19   667.80   751.70   829.83   931.66
                              978.43  1078.33  1123.45  1196.05  1319.68
                             1357.72  1381.49  1483.68  1510.03  1557.90
                             1693.19  1694.17  1745.98  1752.58  1857.79
                             1901.14  1969.38  2054.82  2096.09  2138.60
                             2167.98  2181.23  2218.88  2319.73  2376.65
                             2582.74  4169.34  4358.59  4456.61  4556.46
                             4583.12  4643.81  4650.36

 Zero-point correction=                           0.132932 (Hartree/Particle)
 Thermal correction to Energy=                    0.143161
 Thermal correction to Enthalpy=                  0.144106
 Thermal correction to Gibbs Free Energy=         0.095883
 Sum of electronic and zero-point Energies=          -3031.113234
 Sum of electronic and thermal Energies=             -3031.103005
 Sum of electronic and thermal Enthalpies=           -3031.102061
 Sum of electronic and thermal Free Energies=        -3031.150283

                     E (Thermal)             CV                S
                      KCal/Mol        Cal/Mol-Kelvin    Cal/Mol-Kelvin
 Total                   89.835             36.995            101.494
 Electronic               0.000              0.000              0.000
 Translational            0.889              2.981             41.985
 Rotational               0.889              2.981             31.674
 Vibrational             88.058             31.034             27.835
 Vibration     1          0.598              1.968              4.150
 Vibration     2          0.608              1.935              3.148
 Vibration     3          0.614              1.916              2.838
 Vibration     4          0.622              1.890              2.536
 Vibration     5          0.626              1.878              2.422
 Vibration     6          0.635              1.848              2.190
 Vibration     7          0.667              1.749              1.675
 Vibration     8          0.684              1.698              1.491
 Vibration     9          0.708              1.628              1.291
 Vibration    10          0.742              1.535              1.081
 Vibration    11          0.786              1.418              0.878
 Vibration    12          0.822              1.330              0.754
 Vibration    13          0.877              1.200              0.604
 Vibration    14          0.933              1.082              0.491

 Optimization completed.
    -- Stationary point found.
 Normal termination of Gaussian 16 at Tue Sep 17 09:47:07 2024.

 ----------------------------------------------------------------------
 #p M062X/def2tzvp geom=check guess=read scf(xqc,tight) integral(grid=u
 ltrafine) scrf(SMD, solvent=1,4-Dioxane) polar prop=efg volume
 ----------------------------------------------------------------------

 ---
 spe
 ---
 Structure from the checkpoint file:  "smiles_00118_conf_1.chk"
 Charge =  0 Multiplicity = 1

 SCF Done:  E(RM062X) =  -3033.68566862     A.U. after   13 cycles

  Exact polarizability:     190.406      -4.293     157.915       0.000       0.001      76.360
 Approx polarizability:     195.560      -3.067     175.681       0.000       0.002      95.166

 Normal termination of Gaussian 16 at Tue Sep 17 10:29:17 2024.
 Gaussian 16:  ES64L-G16RevC.02  7-Dec-2021

 ----------------------------------------------------------------------
 #p M062X/def2tzvp geom=check guess=read scf(xqc,tight) integral(grid=u
 ltrafine) scrf(SMD, solvent=1,4-Dioxane) nmr=giao
 ----------------------------------------------------------------------

 ---
 spe
 ---
 Structure from the checkpoint file:  "smiles_00118_conf_1.chk"
 Charge =  0 Multiplicity = 1

                         Standard orientation:
 ---------------------------------------------------------------------
 Center     Atomic      Atomic             Coordinates (Angstroms)
 Number     Number       Type             X           Y           Z
 ---------------------------------------------------------------------
      1          6           0       -2.361238    2.660763   -0.000009
      2          8           0       -1.911363    1.310843   -0.000043
      3          6           0       -0.583594    1.072789   -0.000002
      4          6           0        0.399807    2.071873    0.000020
      5          6           0        1.747123    1.723511    0.000055
      6          6           0        2.138227    0.383017    0.000074
      7          6           0        3.566268    0.020379    0.000123
      8          8           0        3.991931   -1.119690   -0.000137
      9          6           0        1.157304   -0.622410    0.000050
     10          6           0       -0.180254   -0.281970    0.000013
     11         35           0       -1.508660   -1.644054   -0.000014
     12          1           0       -3.449497    2.607959   -0.000006
     13          1           0       -2.020612    3.193941   -0.895025
     14          1           0       -2.020605    3.193897    0.895030
     15          1           0        0.114143    3.115882    0.000008
     16          1           0        2.503634    2.503540    0.000072
     17          1           0        4.260581    0.889998   -0.000163
     18          1           0        1.469038   -1.660258    0.000066
 ---------------------------------------------------------------------

 SCF Done:  E(RM062X) =  -3033.68566862     A.U. after    1 cycles

      1  C    Isotropic =   128.2795   Anisotropy =    76.3708

      2  O    Isotropic =   201.0313   Anisotropy =   131.1113

      3  C    Isotropic =     1.1667   Anisotropy =   169.4797

      4  C    Isotropic =    57.2041   Anisotropy =   182.1508

      5  C    Isotropic =    27.0347   Anisotropy =   219.9400

      6  C    Isotropic =    33.7904   Anisotropy =   192.9365

      7  C    Isotropic =   -31.0547   Anisotropy =   176.8298

      8  O    Isotropic =  -400.5534   Anisotropy =  1183.0558

      9  C    Isotropic =    30.3406   Anisotropy =   197.4459

     10  C    Isotropic =    36.8532   Anisotropy =   117.4852

     11  Br   Isotropic =  2175.2442   Anisotropy =  1034.2813

     12  H    Isotropic =    27.5596   Anisotropy =     8.5302

     13  H    Isotropic =    28.0669   Anisotropy =     8.8192

     14  H    Isotropic =    28.0670   Anisotropy =     8.8192

     15  H    Isotropic =    24.1734   Anisotropy =     8.7340

     16  H    Isotropic =    23.2929   Anisotropy =     5.4249

     17  H    Isotropic =    21.1702   Anisotropy =     4.2415

     18  H    Isotropic =    22.7773   Anisotropy =    11.3888

 The electronic state is 1-A.
 Alpha  occ. eigenvalues -- -485.37741 -63.36207 -57.18160 -57.17917 -57.17903
 Alpha  occ. eigenvalues --  -19.67812 -19.62634 -10.63633 -10.63154 -10.60894
 Alpha  occ. eigenvalues --  -10.59838 -10.56961 -10.56770 -10.56221 -10.55947
 Alpha  occ. eigenvalues --   -9.02847  -6.85281  -6.84377  -6.84330  -2.88658
 Alpha  occ. eigenvalues --   -2.88338  -2.88288  -2.87447  -2.87446  -1.21426
 Alpha  occ. eigenvalues --   -1.16850  -0.98911  -0.91311  -0.87627  -0.83490
 Alpha  occ. eigenvalues --   -0.81311  -0.73105  -0.70765  -0.65775  -0.62455
 Alpha  occ. eigenvalues --   -0.59301  -0.56582  -0.56105  -0.53144  -0.52818
 Alpha  occ. eigenvalues --   -0.50065  -0.49110  -0.49008  -0.46812  -0.46242
 Alpha  occ. eigenvalues --   -0.44231  -0.40759  -0.40737  -0.38484  -0.35217
 Alpha  occ. eigenvalues --   -0.33631  -0.31701  -0.29254
 Alpha virt. eigenvalues --   -0.03298  -0.00084   0.03625   0.07262   0.07329
 Alpha virt. eigenvalues --    0.09099   0.10711   0.12309   0.13021   0.13569
 Alpha virt. eigenvalues --    0.14725   0.15560   0.16061   0.17104   0.17798

 Mulliken charges:
               1
     1  C   -0.318362
     2  O   -0.264931
     3  C    0.330511
     4  C   -0.254932
     5  C   -0.198210
     6  C    0.068240
     7  C    0.096237
     8  O   -0.322904
     9  C   -0.186853
    10  C   -0.031143
    11  Br  -0.085133
    12  H    0.171709
    13  H    0.166583
    14  H    0.166583
    15  H    0.187815
    16  H    0.173551
    17  H    0.107562
    18  H    0.193677
 Sum of Mulliken charges =  -0.00000

 Dipole moment (field-independent basis, Debye):
    X=             -2.0883    Y=              6.0607    Z=              0.0004  Tot=              6.4104
 Quadrupole moment (field-independent basis, Debye-Ang):
   XX=            -82.5603   YY=            -65.5594   ZZ=            -78.4582
   XY=              4.7192   XZ=              0.0012   YZ=             -0.0004

 Normal termination of Gaussian 16 at Tue Sep 17 10:43:54 2024.
