 Gaussian 16, Revision C.02,

 ----------------------------------------------------------------------
 #p B3LYP/6-31G(d,p) EmpiricalDispersion=GD3BJ opt freq scf(xqc,tight)
 integral(grid=ultrafine)
 ----------------------------------------------------------------------

 ----------------------------------
 opt-freq conformers_unique/conf_ad
 ----------------------------------
 Symbolic Z-matrix:
 Charge =  0 Multiplicity = 1

 SCF Done:  E(RB3LYP) =  -3031.23811327     A.U. after   15 cycles
 SCF Done:  E(RB3LYP) =  -3031.23911921     A.U. after   11 cycles
 SCF Done:  E(RB3LYP) =  -3031.23916235     A.U. after   11 cycles
 SCF Done:  E(RB3LYP) =  -3031.23915258     A.U. after   11 cycles
 SCF Done:  E(RB3LYP) =  -3031.23915911     A.U. after   10 cycles
 SCF Done:  E(RB3LYP) =  -3031.23917085     A.U. after   10 cycles
 SCF Done:  E(RB3LYP) =  -3031.23917360     A.U. after    9 cycles
 Optimization completed.
    -- Stationary point found.
 Normal termination of Gaussian 16 at Tue Sep 17 09:45:48 2024.

 ----------------------------------------------------------------------
 #P Geom=AllCheck Guess=TCheck SCRF=Check GenChk RB3LYP/6-31G(d,p) Freq
 ----------------------------------------------------------------------

 Structure from the checkpoint file:  "smiles_00118_conf_3.chk"
 ----------------------------------
 opt-freq conformers_unique/conf_ad
 ----------------------------------
 Charge =  0 Multiplicity = 1

 SCF Done:  E(RB3LYP) =  -3031.23917360     A.U. after    1 cycles
 ******    1 imaginary frequencies (negative Signs) ******

                      1                      2                      3
                      A                      A                      A
 Frequencies --    -58.9035                93.9714               127.2519
 Red. masses --      2.9936                 9.3734                 4.2621
 Frc consts  --      0.0061                 0.0488                 0.0407
 IR Inten    --      5.7461                 5.3335                 0.1403

                      4                      5                      6
                      A                      A                      A
 Frequencies --    153.0132               207.6738               230.4392
 Red. masses --      9.3803                 8.6148                 3.2923
 Frc consts  --      0.1294                 0.2189                 0.1030
 IR Inten    --      3.2412                 1.0015                 6.7240

                      7                      8                      9
                      A                      A                      A
 Frequencies --    280.3787               282.2739               285.9512
 Red. masses --      1.0565                 3.2367                11.5205
 Frc consts  --      0.0489                 0.1519                 0.5550
 IR Inten    --      0.0838                 4.8615                 5.5561

                     10                     11                     12
                      A                      A                      A
 Frequencies --    330.1074               402.5415               469.3973
 Red. masses --      3.8026                 6.3158                 3.5089
 Frc consts  --      0.2441                 0.6030                 0.4555
 IR Inten    --      2.6873                 6.9995                 0.5777

                     13                     14                     15
                      A                      A                      A
 Frequencies --    518.4809               563.1570               648.4160
 Red. masses --      5.1787                 3.5700                 6.3904
 Frc consts  --      0.8202                 0.6671                 1.5830
 IR Inten    --      0.4445                 1.3045                16.3674

                     16                     17                     18
                      A                      A                      A
 Frequencies --    687.5744               730.8661               769.8072
 Red. masses --      7.2208                 4.0766                 5.1898
 Frc consts  --      2.0113                 1.2830                 1.8120
 IR Inten    --     31.6502                 1.9062                22.8991

                     19                     20                     21
                      A                      A                      A
 Frequencies --    855.6503               894.2697               914.2317
 Red. masses --      1.4556                 5.5911                 1.3661
 Frc consts  --      0.6279                 2.6344                 0.6727
 IR Inten    --     31.1446                37.9871                 8.3070

                     22                     23                     24
                      A                      A                      A
 Frequencies --    992.1991              1031.1935              1043.7291
 Red. masses --      1.3123                 1.7644                 5.3255
 Frc consts  --      0.7612                 1.1054                 3.4181
 IR Inten    --      0.0410                 0.2010                54.7991

                     25                     26                     27
                      A                      A                      A
 Frequencies --   1070.6382              1154.8301              1172.8202
 Red. masses --      3.3039                 1.2377                 1.2593
 Frc consts  --      2.2314                 0.9725                 1.0206
 IR Inten    --     17.4005                30.2826                 0.5638

                     28                     29                     30
                      A                      A                      A
 Frequencies --   1209.9751              1236.3087              1293.4137
 Red. masses --      1.3513                 2.1969                 2.6470
 Frc consts  --      1.1656                 1.9784                 2.6090
 IR Inten    --     29.2836               122.9296               100.0636

                     31                     32                     33
                      A                      A                      A
 Frequencies --   1297.6384              1366.6874              1414.3237
 Red. masses --      2.1912                 4.2662                 2.5786
 Frc consts  --      2.1739                 4.6949                 3.0390
 IR Inten    --    125.6837                62.9718               174.3821

                     34                     35                     36
                      A                      A                      A
 Frequencies --   1446.9383              1493.0955              1509.5121
 Red. masses --      1.5515                 1.4041                 1.0484
 Frc consts  --      1.9138                 1.8443                 1.4075
 IR Inten    --      8.1464                 5.6332                35.3824

                     37                     38                     39
                      A                      A                      A
 Frequencies --   1512.2813              1544.3806              1601.7971
 Red. masses --      1.0476                 2.5420                 7.6505
 Frc consts  --      1.4116                 3.5721                11.5652
 IR Inten    --      8.5641                59.8863                88.8879

                     40                     41                     42
                      A                      A                      A
 Frequencies --   1656.4834              1795.3027              2901.6199
 Red. masses --      5.9216                 9.7834                 1.0837
 Frc consts  --      9.5733                18.5787                 5.3759
 IR Inten    --    143.3876               284.8629               128.2494

                     43                     44                     45
                      A                      A                      A
 Frequencies --   3063.6882              3150.6914              3158.7107
 Red. masses --      1.0289                 1.1076                 1.1071
 Frc consts  --      5.6897                 6.4779                 6.5084
 IR Inten    --     51.1642                17.8646                22.2118

                     46                     47                     48
                      A                      A                      A
 Frequencies --   3198.1563              3211.8935              3226.4551
 Red. masses --      1.0907                 1.0879                 1.0954
 Frc consts  --      6.5728                 6.6126                 6.7186
 IR Inten    --      0.6310                 0.8163                 2.3730

 - Thermochemistry -
 -------------------
 Temperature   298.150 Kelvin.  Pressure   1.00000 Atm.
 Atom     1 has atomic number  6 and mass  12.00000

 Molecular mass:   213.96294 amu.
 Principal axes and moments of inertia in atomic units:
                           1         2         3
     Eigenvalues --  1312.393493712.373365013.33468
           X            0.99863  -0.05227  -0.00004
           Y            0.05227   0.99863   0.00001
           Z            0.00004  -0.00001   1.00000
 This molecule is an asymmetric top.
 Rotational symmetry number  1.
 Warning -- assumption of classical behavior for rotation
           may cause significant error
 Rotational temperatures (Kelvin)      0.06600     0.02333     0.01728
 Rotational constants (GHZ):           1.37515     0.48614     0.35999
    1 imaginary frequencies ignored.
 Zero-point vibrational energy     348114.6 (Joules/Mol)
                                   83.20139 (Kcal/Mol)
 Warning -- explicit consideration of  13 degrees of freedom as
           vibrations may cause significant error
 Vibrational temperatures:    135.20   183.09   220.15   298.80   331.55
          (Kelvin)            403.40   406.13   411.42   474.95   579.17
                              675.36   745.98   810.26   932.93   989.27
                             1051.55  1107.58  1231.09  1286.65  1315.38
                             1427.55  1483.66  1501.69  1540.41  1661.54
                             1687.43  1740.88  1778.77  1860.93  1867.01
                             1966.36  2034.90  2081.82  2148.23  2171.85
                             2175.84  2222.02  2304.63  2383.31  2583.04
                             4174.78  4407.96  4533.14  4544.68  4601.43
                             4621.20  4642.15

 Zero-point correction=                           0.132590 (Hartree/Particle)
 Thermal correction to Energy=                    0.142091
 Thermal correction to Enthalpy=                  0.143036
 Thermal correction to Gibbs Free Energy=         0.096647
 Sum of electronic and zero-point Energies=          -3031.106584
 Sum of electronic and thermal Energies=             -3031.097082
 Sum of electronic and thermal Enthalpies=           -3031.096138
 Sum of electronic and thermal Free Energies=        -3031.142526

                     E (Thermal)             CV                S
                      KCal/Mol        Cal/Mol-Kelvin    Cal/Mol-Kelvin
 Total                   89.164             35.232             97.632
 Electronic               0.000              0.000              0.000
 Translational            0.889              2.981             41.985
 Rotational               0.889              2.981             31.569
 Vibrational             87.386             29.271             24.078
 Vibration     1          0.603              1.953              3.576
 Vibration     2          0.611              1.926              2.987
 Vibration     3          0.619              1.899              2.634
 Vibration     4          0.641              1.829              2.064
 Vibration     5          0.652              1.794              1.876
 Vibration     6          0.680              1.710              1.531
 Vibration     7          0.681              1.706              1.520
 Vibration     8          0.684              1.700              1.498
 Vibration     9          0.713              1.615              1.260
 Vibration    10          0.768              1.465              0.953
 Vibration    11          0.827              1.318              0.739
 Vibration    12          0.873              1.209              0.613
 Vibration    13          0.919              1.111              0.518

                           ! Non-Optimized Parameters !
 Normal termination of Gaussian 16 at Tue Sep 17 09:47:11 2024.

 ----------------------------------------------------------------------
 #p M062X/def2tzvp geom=check guess=read scf(xqc,tight) integral(grid=u
 ltrafine) scrf(SMD, solvent=1,4-Dioxane) polar prop=efg volume
 ----------------------------------------------------------------------

 ---
 spe
 ---
 Structure from the checkpoint file:  "smiles_00118_conf_3.chk"
 Charge =  0 Multiplicity = 1

 SCF Done:  E(RM062X) =  -3033.67419876     A.U. after   13 cycles

  Exact polarizability:     202.702      -4.706     147.187      -0.004      -0.022      75.234
 Approx polarizability:     206.374       0.288     166.783       0.010      -0.036      94.906

 Normal termination of Gaussian 16 at Tue Sep 17 10:29:51 2024.
 Gaussian 16:  ES64L-G16RevC.02  7-Dec-2021

 ----------------------------------------------------------------------
 #p M062X/def2tzvp geom=check guess=read scf(xqc,tight) integral(grid=u
 ltrafine) scrf(SMD, solvent=1,4-Dioxane) nmr=giao
 ----------------------------------------------------------------------

 ---
 spe
 ---
 Structure from the checkpoint file:  "smiles_00118_conf_3.chk"
 Charge =  0 Multiplicity = 1

                         Standard orientation:
 ---------------------------------------------------------------------
 Center     Atomic      Atomic             Coordinates (Angstroms)
 Number     Number       Type             X           Y           Z
 ---------------------------------------------------------------------
      1          6           0       -2.696185    1.745446    0.003001
      2          8           0       -1.316476    2.117419   -0.001363
      3          6           0       -0.274828    1.257528   -0.000797
      4          6           0        0.970631    1.928416   -0.001303
      5          6           0        2.168558    1.248494   -0.000869
      6          6           0        2.172941   -0.155803    0.000156
      7          6           0        3.437665   -0.910776    0.000727
      8          8           0        4.543332   -0.402069    0.000879
      9          6           0        0.956024   -0.834492    0.000526
     10          6           0       -0.260053   -0.151333   -0.000034
     11         35           0       -1.823476   -1.267887   -0.000481
     12          1           0       -2.961119    1.171254   -0.886862
     13          1           0       -3.233627    2.694593    0.003966
     14          1           0       -2.955774    1.172481    0.895253
     15          1           0        0.933376    3.012065   -0.001959
     16          1           0        3.116814    1.774234   -0.001214
     17          1           0        3.316261   -2.016577    0.001959
     18          1           0        0.942367   -1.919692    0.001122
 ---------------------------------------------------------------------

 SCF Done:  E(RM062X) =  -3033.67419876     A.U. after    1 cycles

      1  C    Isotropic =   123.7845   Anisotropy =    64.9614

      2  O    Isotropic =   207.7810   Anisotropy =    89.9756

      3  C    Isotropic =     1.6074   Anisotropy =   166.6559

      4  C    Isotropic =    41.2629   Anisotropy =   171.7636

      5  C    Isotropic =    35.6305   Anisotropy =   227.4980

      6  C    Isotropic =    33.2519   Anisotropy =   192.3931

      7  C    Isotropic =   -30.9468   Anisotropy =   177.3918

      8  O    Isotropic =  -402.9112   Anisotropy =  1185.8387

      9  C    Isotropic =    19.1771   Anisotropy =   183.1202

     10  C    Isotropic =    50.0518   Anisotropy =   109.3157

     11  Br   Isotropic =  2118.7802   Anisotropy =  1148.4850

     12  H    Isotropic =    27.1397   Anisotropy =     5.7558

     13  H    Isotropic =    27.8098   Anisotropy =     7.9351

     14  H    Isotropic =    27.1475   Anisotropy =     5.7708

     15  H    Isotropic =    24.1148   Anisotropy =     7.7677

     16  H    Isotropic =    23.0917   Anisotropy =     6.2127

     17  H    Isotropic =    21.2174   Anisotropy =     5.0734

     18  H    Isotropic =    23.3775   Anisotropy =    10.8111

 The electronic state is 1-A.
 Alpha  occ. eigenvalues -- -485.38612 -63.37084 -57.19039 -57.18789 -57.18781
 Alpha  occ. eigenvalues --  -19.67542 -19.62657 -10.64107 -10.63167 -10.61609
 Alpha  occ. eigenvalues --  -10.59406 -10.57415 -10.56200 -10.55913 -10.55749
 Alpha  occ. eigenvalues --   -9.03722  -6.86158  -6.85237  -6.85216  -2.89532
 Alpha  occ. eigenvalues --   -2.89204  -2.89177  -2.88318  -2.88318  -1.20787
 Alpha  occ. eigenvalues --   -1.16860  -0.98974  -0.91305  -0.88654  -0.83579
 Alpha  occ. eigenvalues --   -0.80518  -0.73225  -0.71393  -0.65289  -0.61941
 Alpha  occ. eigenvalues --   -0.59182  -0.56780  -0.56139  -0.53071  -0.52116
 Alpha  occ. eigenvalues --   -0.50019  -0.49092  -0.49020  -0.46908  -0.46143
 Alpha  occ. eigenvalues --   -0.43733  -0.41579  -0.41065  -0.38468  -0.35647
 Alpha  occ. eigenvalues --   -0.33692  -0.31883  -0.29091
 Alpha virt. eigenvalues --   -0.03397  -0.00009   0.02225   0.06859   0.08004
 Alpha virt. eigenvalues --    0.09883   0.10674   0.11146   0.13081   0.13703
 Alpha virt. eigenvalues --    0.14038   0.14895   0.16053   0.17181   0.18639

 Mulliken charges:
               1
     1  C   -0.306927
     2  O   -0.269576
     3  C    0.282833
     4  C   -0.179189
     5  C   -0.195725
     6  C    0.075206
     7  C    0.091150
     8  O   -0.323912
     9  C   -0.203441
    10  C   -0.028746
    11  Br  -0.098990
    12  H    0.168075
    13  H    0.165566
    14  H    0.168172
    15  H    0.175702
    16  H    0.182462
    17  H    0.108972
    18  H    0.188366
 Sum of Mulliken charges =   0.00000

 Dipole moment (field-independent basis, Debye):
    X=             -4.1794    Y=              0.4066    Z=              0.0051  Tot=              4.1991
 Quadrupole moment (field-independent basis, Debye-Ang):
   XX=            -90.0694   YY=            -70.2450   ZZ=            -78.4226
   XY=             -3.3928   XZ=             -0.0179   YZ=              0.0062

 Normal termination of Gaussian 16 at Tue Sep 17 10:44:52 2024.
