 Gaussian 16, Revision C.02,

 ----------------------------------------------------------------------
 #p B3LYP/6-31G(d,p) EmpiricalDispersion=GD3BJ opt freq scf(xqc,tight)
 integral(grid=ultrafine)
 ----------------------------------------------------------------------

 ----------------------------------
 opt-freq conformers_unique/conf_aa
 ----------------------------------
 Symbolic Z-matrix:
 Charge =  0 Multiplicity = 1

 SCF Done:  E(RB3LYP) =  -3031.24491311     A.U. after   15 cycles
 SCF Done:  E(RB3LYP) =  -3031.24616339     A.U. after   12 cycles
 SCF Done:  E(RB3LYP) =  -3031.24627883     A.U. after   11 cycles
 SCF Done:  E(RB3LYP) =  -3031.24629242     A.U. after   10 cycles
 SCF Done:  E(RB3LYP) =  -3031.24627991     A.U. after   10 cycles
 SCF Done:  E(RB3LYP) =  -3031.24629315     A.U. after    9 cycles
 Optimization completed.
    -- Stationary point found.
 Normal termination of Gaussian 16 at Tue Sep 17 09:45:25 2024.

 ----------------------------------------------------------------------
 #P Geom=AllCheck Guess=TCheck SCRF=Check GenChk RB3LYP/6-31G(d,p) Freq
 ----------------------------------------------------------------------

 Structure from the checkpoint file:  "smiles_00118_conf_0.chk"
 ----------------------------------
 opt-freq conformers_unique/conf_aa
 ----------------------------------
 Charge =  0 Multiplicity = 1

 SCF Done:  E(RB3LYP) =  -3031.24629315     A.U. after    1 cycles

                      1                      2                      3
                      A                      A                      A
 Frequencies --     77.1154               111.7823               132.6209
 Red. masses --      4.1981                 4.5166                 4.1276
 Frc consts  --      0.0147                 0.0333                 0.0428
 IR Inten    --      0.0636                 9.6866                 1.8249

                      4                      5                      6
                      A                      A                      A
 Frequencies --    149.1604               166.6641               236.1343
 Red. masses --      9.8578                 5.1674                 2.9194
 Frc consts  --      0.1292                 0.0846                 0.0959
 IR Inten    --      2.5341                 5.0147                 4.6512

                      7                      8                      9
                      A                      A                      A
 Frequencies --    247.6358               286.2725               325.0435
 Red. masses --      1.1488                10.6020                 3.9952
 Frc consts  --      0.0415                 0.5119                 0.2487
 IR Inten    --      0.3224                 3.6621                 0.0785

                     10                     11                     12
                      A                      A                      A
 Frequencies --    349.1079               385.7423               465.1539
 Red. masses --      3.7699                 8.2183                 3.3612
 Frc consts  --      0.2707                 0.7205                 0.4285
 IR Inten    --      2.0807                 0.8413                 0.4785

                     13                     14                     15
                      A                      A                      A
 Frequencies --    557.6189               573.4814               631.1099
 Red. masses --      4.4230                 3.5232                 7.3418
 Frc consts  --      0.8103                 0.6827                 1.7229
 IR Inten    --     15.3332                 1.9728                22.6417

                     16                     17                     18
                      A                      A                      A
 Frequencies --    701.6554               750.4780               785.5479
 Red. masses --      7.3982                 3.5380                 4.7186
 Frc consts  --      2.1460                 1.1740                 1.7156
 IR Inten    --     43.0980                 0.6751                11.7816

                     19                     20                     21
                      A                      A                      A
 Frequencies --    842.5978               899.6358               923.9307
 Red. masses --      1.5416                 5.7469                 1.3789
 Frc consts  --      0.6448                 2.7404                 0.6935
 IR Inten    --     34.4659                29.8008                 7.7661

                     22                     23                     24
                      A                      A                      A
 Frequencies --    979.6773              1032.1280              1049.6082
 Red. masses --      1.3236                 1.7739                 4.0367
 Frc consts  --      0.7485                 1.1134                 2.6202
 IR Inten    --      0.0000                 0.2036                16.1196

                     25                     26                     27
                      A                      A                      A
 Frequencies --   1084.3264              1167.2157              1177.1194
 Red. masses --      3.9820                 1.2633                 1.2717
 Frc consts  --      2.7585                 1.0140                 1.0382
 IR Inten    --     82.6586                40.2903                 0.7775

                     28                     29                     30
                      A                      A                      A
 Frequencies --   1212.4672              1227.7661              1306.0224
 Red. masses --      1.3729                 2.1501                 1.7123
 Frc consts  --      1.1891                 1.9096                 1.7208
 IR Inten    --      5.9872               126.4330                42.6940

                     31                     32                     33
                      A                      A                      A
 Frequencies --   1324.6002              1364.5884              1416.5589
 Red. masses --      3.3452                 7.1166                 2.0367
 Frc consts  --      3.4581                 7.8077                 2.4080
 IR Inten    --    234.6559                97.8379                31.8212

                     34                     35                     36
                      A                      A                      A
 Frequencies --   1454.2903              1488.7781              1506.8773
 Red. masses --      1.8203                 1.2814                 1.0460
 Frc consts  --      2.2683                 1.6734                 1.3993
 IR Inten    --     10.7166                 9.7207                 7.0061

                     37                     38                     39
                      A                      A                      A
 Frequencies --   1515.7862              1547.5581              1612.5857
 Red. masses --      1.0658                 2.8026                 7.0857
 Frc consts  --      1.4428                 3.9547                10.8563
 IR Inten    --     49.3808                62.3053                11.5561

                     40                     41                     42
                      A                      A                      A
 Frequencies --   1650.4080              1794.6202              2904.6538
 Red. masses --      6.0828                 9.7336                 1.0838
 Frc consts  --      9.7619                18.4700                 5.3875
 IR Inten    --    191.8507               273.9150               133.1309

                     43                     44                     45
                      A                      A                      A
 Frequencies --   3031.0025              3099.8516              3167.4728
 Red. masses --      1.0340                 1.1069                 1.1013
 Frc consts  --      5.5968                 6.2668                 6.5097
 IR Inten    --     48.7304                30.8121                15.0548

                     46                     47                     48
                      A                      A                      A
 Frequencies --   3200.9854              3216.0085              3232.9397
 Red. masses --      1.0911                 1.0885                 1.0932
 Frc consts  --      6.5867                 6.6331                 6.7317
 IR Inten    --      0.8456                 0.2876                 6.7800

 - Thermochemistry -
 -------------------
 Temperature   298.150 Kelvin.  Pressure   1.00000 Atm.
 Atom     1 has atomic number  6 and mass  12.00000

 Molecular mass:   213.96294 amu.
 Principal axes and moments of inertia in atomic units:
                           1         2         3
     Eigenvalues --  1585.035733527.466935100.97003
           X            0.99722  -0.07448   0.00005
           Y            0.07448   0.99722  -0.00004
           Z           -0.00005   0.00004   1.00000
 This molecule is an asymmetric top.
 Rotational symmetry number  1.
 Warning -- assumption of classical behavior for rotation
           may cause significant error
 Rotational temperatures (Kelvin)      0.05464     0.02455     0.01698
 Rotational constants (GHZ):           1.13861     0.51163     0.35380
 Zero-point vibrational energy     349096.5 (Joules/Mol)
                                   83.43608 (Kcal/Mol)
 Warning -- explicit consideration of  14 degrees of freedom as
           vibrations may cause significant error
 Vibrational temperatures:    110.95   160.83   190.81   214.61   239.79
          (Kelvin)            339.74   356.29   411.88   467.67   502.29
                              555.00   669.25   802.29   825.11   908.03
                             1009.53  1079.77  1130.23  1212.31  1294.38
                             1329.33  1409.54  1485.00  1510.15  1560.10
                             1679.36  1693.61  1744.47  1766.48  1879.07
                             1905.80  1963.34  2038.11  2092.40  2142.02
                             2168.06  2180.88  2226.59  2320.15  2374.57
                             2582.06  4179.15  4360.94  4460.00  4557.29
                             4605.50  4627.12  4651.48

 Zero-point correction=                           0.132964 (Hartree/Particle)
 Thermal correction to Energy=                    0.143211
 Thermal correction to Enthalpy=                  0.144155
 Thermal correction to Gibbs Free Energy=         0.095895
 Sum of electronic and zero-point Energies=          -3031.113329
 Sum of electronic and thermal Energies=             -3031.103082
 Sum of electronic and thermal Enthalpies=           -3031.102138
 Sum of electronic and thermal Free Energies=        -3031.150399

                     E (Thermal)             CV                S
                      KCal/Mol        Cal/Mol-Kelvin    Cal/Mol-Kelvin
 Total                   89.866             37.012            101.572
 Electronic               0.000              0.000              0.000
 Translational            0.889              2.981             41.985
 Rotational               0.889              2.981             31.723
 Vibrational             88.089             31.050             27.864
 Vibration     1          0.599              1.964              3.963
 Vibration     2          0.607              1.940              3.238
 Vibration     3          0.613              1.921              2.908
 Vibration     4          0.618              1.904              2.683
 Vibration     5          0.624              1.883              2.473
 Vibration     6          0.655              1.785              1.832
 Vibration     7          0.661              1.767              1.747
 Vibration     8          0.684              1.699              1.496
 Vibration     9          0.709              1.625              1.285
 Vibration    10          0.726              1.577              1.170
 Vibration    11          0.754              1.501              1.017
 Vibration    12          0.823              1.327              0.751
 Vibration    13          0.913              1.123              0.529
 Vibration    14          0.930              1.089              0.498

 Optimization completed.
    -- Stationary point found.
 Normal termination of Gaussian 16 at Tue Sep 17 09:46:44 2024.

 ----------------------------------------------------------------------
 #p M062X/def2tzvp geom=check guess=read scf(xqc,tight) integral(grid=u
 ltrafine) scrf(SMD, solvent=1,4-Dioxane) polar prop=efg volume
 ----------------------------------------------------------------------

 ---
 spe
 ---
 Structure from the checkpoint file:  "smiles_00118_conf_0.chk"
 Charge =  0 Multiplicity = 1

 SCF Done:  E(RM062X) =  -3033.68562302     A.U. after   12 cycles

  Exact polarizability:     193.700      -5.763     153.947      -0.007       0.003      76.187
 Approx polarizability:     204.736       1.560     165.563      -0.007       0.001      95.101

 Normal termination of Gaussian 16 at Tue Sep 17 10:26:26 2024.
 Gaussian 16:  ES64L-G16RevC.02  7-Dec-2021

 ----------------------------------------------------------------------
 #p M062X/def2tzvp geom=check guess=read scf(xqc,tight) integral(grid=u
 ltrafine) scrf(SMD, solvent=1,4-Dioxane) nmr=giao
 ----------------------------------------------------------------------

 ---
 spe
 ---
 Structure from the checkpoint file:  "smiles_00118_conf_0.chk"
 Charge =  0 Multiplicity = 1

                         Standard orientation:
 ---------------------------------------------------------------------
 Center     Atomic      Atomic             Coordinates (Angstroms)
 Number     Number       Type             X           Y           Z
 ---------------------------------------------------------------------
      1          6           0       -1.732680    3.025555    0.000203
      2          8           0       -1.614072    1.606877    0.000067
      3          6           0       -0.379856    1.061820    0.000056
      4          6           0        0.814039    1.803036    0.000063
      5          6           0        2.040968    1.155008    0.000038
      6          6           0        2.107055   -0.242933    0.000010
      7          6           0        3.409002   -0.933280   -0.000007
      8          8           0        4.488270   -0.370134   -0.000505
      9          6           0        0.920117   -0.987672   -0.000003
     10          6           0       -0.306131   -0.345268    0.000025
     11         35           0       -1.912004   -1.364370    0.000025
     12          1           0       -2.802822    3.229981    0.000286
     13          1           0       -1.276102    3.463050   -0.894825
     14          1           0       -1.275996    3.462889    0.895255
     15          1           0        0.778481    2.884985    0.000087
     16          1           0        2.968771    1.716451    0.000050
     17          1           0        3.343701   -2.043543   -0.000526
     18          1           0        0.955450   -2.072403   -0.000020
 ---------------------------------------------------------------------

 SCF Done:  E(RM062X) =  -3033.68562302     A.U. after    1 cycles

      1  C    Isotropic =   128.2273   Anisotropy =    76.4812

      2  O    Isotropic =   201.4280   Anisotropy =   129.9426

      3  C    Isotropic =     0.7931   Anisotropy =   169.4342

      4  C    Isotropic =    55.8307   Anisotropy =   184.6916

      5  C    Isotropic =    34.9680   Anisotropy =   229.1789

      6  C    Isotropic =    33.5823   Anisotropy =   192.7858

      7  C    Isotropic =   -31.4874   Anisotropy =   178.0156

      8  O    Isotropic =  -401.1778   Anisotropy =  1183.1931

      9  C    Isotropic =    23.0491   Anisotropy =   189.8662

     10  C    Isotropic =    39.5661   Anisotropy =   115.5930

     11  Br   Isotropic =  2180.3818   Anisotropy =  1049.6583

     12  H    Isotropic =    27.5765   Anisotropy =     8.5237

     13  H    Isotropic =    28.0674   Anisotropy =     8.8514

     14  H    Isotropic =    28.0675   Anisotropy =     8.8511

     15  H    Isotropic =    24.1512   Anisotropy =     8.9372

     16  H    Isotropic =    22.8900   Anisotropy =     6.7292

     17  H    Isotropic =    21.1570   Anisotropy =     5.0621

     18  H    Isotropic =    23.1711   Anisotropy =    10.2032

 The electronic state is 1-A.
 Alpha  occ. eigenvalues -- -485.37943 -63.36409 -57.18363 -57.18119 -57.18106
 Alpha  occ. eigenvalues --  -19.67791 -19.62654 -10.63611 -10.63173 -10.60896
 Alpha  occ. eigenvalues --  -10.59802 -10.57251 -10.56493 -10.56198 -10.55938
 Alpha  occ. eigenvalues --   -9.03050  -6.85483  -6.84578  -6.84536  -2.88860
 Alpha  occ. eigenvalues --   -2.88538  -2.88493  -2.87651  -2.87650  -1.21386
 Alpha  occ. eigenvalues --   -1.16850  -0.98973  -0.91235  -0.87891  -0.83614
 Alpha  occ. eigenvalues --   -0.80913  -0.73591  -0.70844  -0.65136  -0.62517
 Alpha  occ. eigenvalues --   -0.59255  -0.56640  -0.56552  -0.53303  -0.52731
 Alpha  occ. eigenvalues --   -0.49646  -0.49121  -0.48919  -0.46989  -0.46287
 Alpha  occ. eigenvalues --   -0.44342  -0.40770  -0.40725  -0.38469  -0.35403
 Alpha  occ. eigenvalues --   -0.33687  -0.31957  -0.29130
 Alpha virt. eigenvalues --   -0.03366  -0.00035   0.03423   0.07203   0.07470
 Alpha virt. eigenvalues --    0.09797   0.10353   0.11708   0.13320   0.13837
 Alpha virt. eigenvalues --    0.14785   0.14807   0.16552   0.17133   0.18623

 Mulliken charges:
               1
     1  C   -0.318558
     2  O   -0.266833
     3  C    0.331402
     4  C   -0.226822
     5  C   -0.205510
     6  C    0.066796
     7  C    0.093632
     8  O   -0.325005
     9  C   -0.177666
    10  C   -0.055639
    11  Br  -0.087942
    12  H    0.171209
    13  H    0.167356
    14  H    0.167356
    15  H    0.188976
    16  H    0.183203
    17  H    0.109403
    18  H    0.184640
 Sum of Mulliken charges =  -0.00000

 Dipole moment (field-independent basis, Debye):
    X=             -2.5878    Y=              2.6461    Z=              0.0009  Tot=              3.7012
 Quadrupole moment (field-independent basis, Debye-Ang):
   XX=            -96.5616   YY=            -59.5311   ZZ=            -78.4385
   XY=             -5.7743   XZ=              0.0034   YZ=              0.0011

 Normal termination of Gaussian 16 at Tue Sep 17 10:42:43 2024.
