 Gaussian 16, Revision C.02,

 ----------------------------------------------------------------------
 #p B3LYP/6-31G(d,p) EmpiricalDispersion=GD3BJ opt freq scf(xqc,tight)
 integral(grid=ultrafine)
 ----------------------------------------------------------------------

 ----------------------------------
 opt-freq conformers_unique/conf_ab
 ----------------------------------
 Symbolic Z-matrix:
 Charge =  0 Multiplicity = 1

 SCF Done:  E(RB3LYP) =  -1203.80944481     A.U. after   15 cycles
 SCF Done:  E(RB3LYP) =  -1203.81190949     A.U. after   12 cycles
 SCF Done:  E(RB3LYP) =  -1203.81208182     A.U. after   10 cycles
 SCF Done:  E(RB3LYP) =  -1203.81210706     A.U. after    9 cycles
 SCF Done:  E(RB3LYP) =  -1203.81210811     A.U. after    8 cycles
 Optimization completed.
    -- Stationary point found.
 Normal termination of Gaussian 16 at Tue Sep 17 09:52:18 2024.

 ----------------------------------------------------------------------
 #P Geom=AllCheck Guess=TCheck SCRF=Check GenChk RB3LYP/6-31G(d,p) Freq
 ----------------------------------------------------------------------

 Structure from the checkpoint file:  "smiles_00037_conf_1.chk"
 ----------------------------------
 opt-freq conformers_unique/conf_ab
 ----------------------------------
 Charge =  0 Multiplicity = 1

 SCF Done:  E(RB3LYP) =  -1203.81210811     A.U. after    1 cycles
 ******    1 imaginary frequencies (negative Signs) ******

                      1                      2                      3
                      A                      A                      A
 Frequencies --    -51.0350                33.9534                97.6968
 Red. masses --      4.3153                 8.8428                 9.7053
 Frc consts  --      0.0066                 0.0060                 0.0546
 IR Inten    --      0.0000                 0.9066                 3.6067

                      4                      5                      6
                      A                      A                      A
 Frequencies --    113.8871               132.7837               165.0797
 Red. masses --      7.9403                 4.9961                 8.2472
 Frc consts  --      0.0607                 0.0519                 0.1324
 IR Inten    --      0.1048                 0.0000                 2.3222

                      7                      8                      9
                      A                      A                      A
 Frequencies --    226.7339               239.8386               245.7900
 Red. masses --      7.8211                 7.4067                11.9729
 Frc consts  --      0.2369                 0.2510                 0.4262
 IR Inten    --      0.3115                 0.0233                 0.1993

                     10                     11                     12
                      A                      A                      A
 Frequencies --    303.6939               367.1303               372.7487
 Red. masses --     10.5029                 6.5527                 4.6487
 Frc consts  --      0.5707                 0.5204                 0.3806
 IR Inten    --      1.6593                 0.1036                 0.7017

                     13                     14                     15
                      A                      A                      A
 Frequencies --    384.5416               415.5744               420.2988
 Red. masses --     11.3714                 3.1887                 3.3157
 Frc consts  --      0.9907                 0.3245                 0.3451
 IR Inten    --     10.5612                 0.0000                 0.1880

                     16                     17                     18
                      A                      A                      A
 Frequencies --    460.9879               474.7122               522.2218
 Red. masses --      4.9525                 9.8389                 2.9685
 Frc consts  --      0.6201                 1.3063                 0.4770
 IR Inten    --      0.0000                44.1014                11.9973

                     19                     20                     21
                      A                      A                      A
 Frequencies --    544.1306               585.2075               649.9085
 Red. masses --      7.5652                10.6314                 7.1989
 Frc consts  --      1.3197                 2.1452                 1.7915
 IR Inten    --      9.6713                 8.1118                 0.4378

                     22                     23                     24
                      A                      A                      A
 Frequencies --    674.1764               674.6008               710.1733
 Red. masses --      8.8214                 5.2031                 4.3857
 Frc consts  --      2.3623                 1.3951                 1.3032
 IR Inten    --      2.9054                 0.0000                 7.0546

                     25                     26                     27
                      A                      A                      A
 Frequencies --    715.0611               725.0937               743.8027
 Red. masses --      3.2879                 7.4085                 6.8849
 Frc consts  --      0.9905                 2.2949                 2.2442
 IR Inten    --     43.7058                 2.9217                20.4475

                     28                     29                     30
                      A                      A                      A
 Frequencies --    773.9567               796.6383               840.7537
 Red. masses --      6.8238                 1.5835                 1.2452
 Frc consts  --      2.4083                 0.5921                 0.5186
 IR Inten    --      0.0000                17.6809                 0.0000

                     31                     32                     33
                      A                      A                      A
 Frequencies --    847.3463               861.9433               896.2431
 Red. masses --      1.5114                 6.5529                 7.8238
 Frc consts  --      0.6394                 2.8684                 3.7027
 IR Inten    --     50.9983                30.7441                22.7085

                     34                     35                     36
                      A                      A                      A
 Frequencies --    909.6405               974.9674               976.4627
 Red. masses --      1.3232                 1.3714                 1.2797
 Frc consts  --      0.6451                 0.7681                 0.7189
 IR Inten    --      0.0000                 0.4044                 1.5845

                     37                     38                     39
                      A                      A                      A
 Frequencies --    983.2344              1009.9116              1031.9736
 Red. masses --      1.3100                 1.3031                 4.0335
 Frc consts  --      0.7461                 0.7830                 2.5309
 IR Inten    --      0.0000                 0.0000                26.7832

                     40                     41                     42
                      A                      A                      A
 Frequencies --   1037.8237              1067.6131              1111.3909
 Red. masses --      2.1539                 7.7330                 2.2563
 Frc consts  --      1.3668                 5.1931                 1.6420
 IR Inten    --      7.8130                92.9395                 0.1132

                     43                     44                     45
                      A                      A                      A
 Frequencies --   1120.9646              1132.4601              1158.4925
 Red. masses --      3.9343                 2.5137                 1.3017
 Frc consts  --      2.9128                 1.8994                 1.0293
 IR Inten    --     58.9974                 0.9176                17.4646

                     46                     47                     48
                      A                      A                      A
 Frequencies --   1188.4464              1203.0355              1223.2682
 Red. masses --      1.1608                 2.3269                 1.1892
 Frc consts  --      0.9660                 1.9842                 1.0485
 IR Inten    --      8.7459                 0.6124                 2.3888

                     49                     50                     51
                      A                      A                      A
 Frequencies --   1257.1534              1312.2178              1337.5367
 Red. masses --      3.9465                 1.5827                 2.4729
 Frc consts  --      3.6749                 1.6056                 2.6066
 IR Inten    --     23.3364                 0.8707                 1.0213

                     52                     53                     54
                      A                      A                      A
 Frequencies --   1346.9922              1367.6967              1411.8777
 Red. masses --      2.2058                 8.5669                 6.2522
 Frc consts  --      2.3580                 9.4418                 7.3430
 IR Inten    --      0.0099               583.6650               135.0872

                     55                     56                     57
                      A                      A                      A
 Frequencies --   1457.8902              1509.6181              1514.6372
 Red. masses --      3.0572                 2.5058                 2.6878
 Frc consts  --      3.8285                 3.3646                 3.6329
 IR Inten    --      7.8387                 6.4215                 4.3471

                     58                     59                     60
                      A                      A                      A
 Frequencies --   1538.7307              1624.8658              1653.3433
 Red. masses --      2.2858                 7.3955                 5.6663
 Frc consts  --      3.1887                11.5042                 9.1259
 IR Inten    --    288.8945                 0.1555                 1.8958

                     61                     62                     63
                      A                      A                      A
 Frequencies --   1662.9293              1674.0980              1799.0336
 Red. masses --      6.9731                 7.7227                12.3128
 Frc consts  --     11.3612                12.7521                23.4793
 IR Inten    --     14.9275                 1.1075               464.1744

                     64                     65                     66
                      A                      A                      A
 Frequencies --   1850.9175              3195.6902              3208.8045
 Red. masses --     12.8264                 1.0871                 1.0912
 Frc consts  --     25.8898                 6.5411                 6.6198
 IR Inten    --     25.4141                 1.9665                 8.8994

                     67                     68                     69
                      A                      A                      A
 Frequencies --   3219.1708              3219.2311              3221.5325
 Red. masses --      1.0918                 1.0918                 1.0939
 Frc consts  --      6.6663                 6.6668                 6.6890
 IR Inten    --      3.3091                 2.2130                 3.0217

                     70                     71                     72
                      A                      A                      A
 Frequencies --   3224.4796              3287.3623              3287.8546
 Red. masses --      1.0964                 1.0921                 1.0911
 Frc consts  --      6.7166                 6.9535                 6.9492
 IR Inten    --     10.2406                25.1728                 4.1235

 - Thermochemistry -
 -------------------
 Temperature   298.150 Kelvin.  Pressure   1.00000 Atm.
 Atom     1 has atomic number  8 and mass  15.99491

 Molecular mass:   257.02436 amu.
 Principal axes and moments of inertia in atomic units:
                           1         2         3
     Eigenvalues --  1363.55036********************
           X            1.00000   0.00000   0.00001
           Y           -0.00000   1.00000   0.00000
           Z           -0.00001  -0.00000   1.00000
 This molecule is an asymmetric top.
 Rotational symmetry number  1.
 Warning -- assumption of classical behavior for rotation
           may cause significant error
 Rotational temperatures (Kelvin)      0.06352     0.00838     0.00740
 Rotational constants (GHZ):           1.32356     0.17459     0.15424
    1 imaginary frequencies ignored.
 Zero-point vibrational energy     492443.1 (Joules/Mol)
                                  117.69673 (Kcal/Mol)
 Warning -- explicit consideration of  19 degrees of freedom as
           vibrations may cause significant error
 Vibrational temperatures:     48.85   140.56   163.86   191.05   237.51
          (Kelvin)            326.22   345.07   353.64   436.95   528.22
                              536.30   553.27   597.92   604.72   663.26
                              683.00   751.36   782.88   841.98   935.07
                              969.99   970.60  1021.78  1028.81  1043.25
                             1070.17  1113.55  1146.18  1209.66  1219.14
                             1240.14  1289.49  1308.77  1402.76  1404.91
                             1414.65  1453.04  1484.78  1493.20  1536.06
                             1599.04  1612.82  1629.36  1666.81  1709.91
                             1730.90  1760.01  1808.76  1887.99  1924.42
                             1938.02  1967.81  2031.38  2097.58  2172.00
                             2179.23  2213.89  2337.82  2378.79  2392.58
                             2408.65  2588.41  2663.06  4597.89  4616.75
                             4631.67  4631.76  4635.07  4639.31  4729.78
                             4730.49

 Zero-point correction=                           0.187562 (Hartree/Particle)
 Thermal correction to Energy=                    0.200328
 Thermal correction to Enthalpy=                  0.201273
 Thermal correction to Gibbs Free Energy=         0.147472
 Sum of electronic and zero-point Energies=          -1203.624546
 Sum of electronic and thermal Energies=             -1203.611780
 Sum of electronic and thermal Enthalpies=           -1203.610836
 Sum of electronic and thermal Free Energies=        -1203.664636

                     E (Thermal)             CV                S
                      KCal/Mol        Cal/Mol-Kelvin    Cal/Mol-Kelvin
 Total                  125.708             51.527            113.234
 Electronic               0.000              0.000              0.000
 Translational            0.889              2.981             42.532
 Rotational               0.889              2.981             33.466
 Vibrational            123.931             45.565             37.235
 Vibration     1          0.594              1.983              5.584
 Vibration     2          0.603              1.951              3.500
 Vibration     3          0.607              1.938              3.202
 Vibration     4          0.613              1.921              2.905
 Vibration     5          0.623              1.885              2.491
 Vibration     6          0.650              1.800              1.905
 Vibration     7          0.657              1.779              1.804
 Vibration     8          0.660              1.770              1.761
 Vibration     9          0.695              1.667              1.396
 Vibration    10          0.740              1.540              1.092
 Vibration    11          0.744              1.528              1.068
 Vibration    12          0.753              1.503              1.021
 Vibration    13          0.779              1.436              0.907
 Vibration    14          0.783              1.426              0.891
 Vibration    15          0.819              1.337              0.763
 Vibration    16          0.831              1.306              0.724
 Vibration    17          0.877              1.201              0.605
 Vibration    18          0.899              1.153              0.556
 Vibration    19          0.942              1.063              0.476

 Optimization completed.
    -- Stationary point found.
 Normal termination of Gaussian 16 at Tue Sep 17 09:55:31 2024.

 ----------------------------------------------------------------------
 #p M062X/def2tzvp geom=check guess=read scf(xqc,tight) integral(grid=u
 ltrafine) scrf(SMD, solvent=1,4-Dioxane) polar prop=efg volume
 ----------------------------------------------------------------------

 ---
 spe
 ---
 Structure from the checkpoint file:  "smiles_00037_conf_1.chk"
 Charge =  0 Multiplicity = 1

 SCF Done:  E(RM062X) =  -1203.73715502     A.U. after   12 cycles

  Exact polarizability:     338.025      -0.000     219.280       0.010       0.001     101.433
 Approx polarizability:     309.893      -0.001     279.610       0.008       0.001     131.990

 Normal termination of Gaussian 16 at Tue Sep 17 11:29:22 2024.
 Gaussian 16:  ES64L-G16RevC.02  7-Dec-2021

 ----------------------------------------------------------------------
 #p M062X/def2tzvp geom=check guess=read scf(xqc,tight) integral(grid=u
 ltrafine) scrf(SMD, solvent=1,4-Dioxane) nmr=giao
 ----------------------------------------------------------------------

 ---
 spe
 ---
 Structure from the checkpoint file:  "smiles_00037_conf_1.chk"
 Charge =  0 Multiplicity = 1

                         Standard orientation:
 ---------------------------------------------------------------------
 Center     Atomic      Atomic             Coordinates (Angstroms)
 Number     Number       Type             X           Y           Z
 ---------------------------------------------------------------------
      1          8           0       -0.888428   -2.323391    0.000413
      2          6           0       -1.257371   -1.167387    0.000765
      3          6           0       -2.663921   -0.694380    0.000208
      4          6           0       -3.842643   -1.424327   -0.000242
      5          6           0       -5.041300   -0.700608   -0.000699
      6          6           0       -5.041344    0.700442   -0.000734
      7          6           0       -3.842733    1.424237   -0.000313
      8          6           0       -2.663965    0.694366    0.000173
      9          6           0       -1.257444    1.167465    0.000703
     10          8           0       -0.888594    2.323498    0.000291
     11          7           0       -0.434752    0.000062    0.000561
     12          6           0        0.997510    0.000064    0.000295
     13          6           0        1.711106    1.210000    0.000261
     14          6           0        3.102903    1.206304    0.000026
     15          6           0        3.794912   -0.000009   -0.000181
     16         17           0        5.551392   -0.000055   -0.000482
     17          6           0        3.102841   -1.206286   -0.000154
     18          6           0        1.711045   -1.209907    0.000080
     19          1           0       -3.826186   -2.508537   -0.000214
     20          1           0       -5.987644   -1.231741   -0.001042
     21          1           0       -5.987722    1.231515   -0.001104
     22          1           0       -3.826346    2.508448   -0.000339
     23          1           0        1.183940    2.150216    0.000419
     24          1           0        3.644225    2.145194    0.000004
     25          1           0        3.644113   -2.145205   -0.000317
     26          1           0        1.183823   -2.150094    0.000103
 ---------------------------------------------------------------------

 SCF Done:  E(RM062X) =  -1203.73715502     A.U. after    1 cycles

      1  O    Isotropic =  -210.7589   Anisotropy =   840.3529

      2  C    Isotropic =    -5.6109   Anisotropy =   103.4732

      3  C    Isotropic =    31.1980   Anisotropy =   190.2650

      4  C    Isotropic =    39.7388   Anisotropy =   223.2101

      5  C    Isotropic =    26.5864   Anisotropy =   229.0906

      6  C    Isotropic =    26.5859   Anisotropy =   229.0895

      7  C    Isotropic =    39.7386   Anisotropy =   223.2103

      8  C    Isotropic =    31.1980   Anisotropy =   190.2662

      9  C    Isotropic =    -5.6103   Anisotropy =   103.4705

     10  O    Isotropic =  -210.7581   Anisotropy =   840.3660

     11  N    Isotropic =    49.6604   Anisotropy =   189.5452

     12  C    Isotropic =    26.3254   Anisotropy =   164.9640

     13  C    Isotropic =    45.7783   Anisotropy =   204.2119

     14  C    Isotropic =    34.3831   Anisotropy =   186.2678

     15  C    Isotropic =    24.9819   Anisotropy =   139.3120

     16  Cl   Isotropic =   686.7406   Anisotropy =   506.6172

     17  C    Isotropic =    34.3819   Anisotropy =   186.2679

     18  C    Isotropic =    45.7760   Anisotropy =   204.2194

     19  H    Isotropic =    22.9823   Anisotropy =     7.2137

     20  H    Isotropic =    23.1793   Anisotropy =     6.5964

     21  H    Isotropic =    23.1793   Anisotropy =     6.5965

     22  H    Isotropic =    22.9823   Anisotropy =     7.2137

     23  H    Isotropic =    21.6279   Anisotropy =    11.7673

     24  H    Isotropic =    23.6200   Anisotropy =     8.9744

     25  H    Isotropic =    23.6200   Anisotropy =     8.9746

     26  H    Isotropic =    21.6265   Anisotropy =    11.7695

 The electronic state is 1-A.
 Alpha  occ. eigenvalues -- -102.64570 -19.64211 -19.64211 -14.82543 -10.68659
 Alpha  occ. eigenvalues --  -10.68657 -10.60869 -10.60607 -10.57800 -10.57722
 Alpha  occ. eigenvalues --  -10.57455 -10.57455 -10.57185 -10.57111 -10.55676
 Alpha  occ. eigenvalues --  -10.55673 -10.55266 -10.55265  -9.80814  -7.53011
 Alpha  occ. eigenvalues --   -7.52502  -7.52490  -1.21075  -1.19473  -1.08854
 Alpha  occ. eigenvalues --   -1.00272  -0.98921  -0.94138  -0.89631  -0.87763
 Alpha  occ. eigenvalues --   -0.85880  -0.83060  -0.77110  -0.75204  -0.72547
 Alpha  occ. eigenvalues --   -0.69135  -0.68606  -0.66147  -0.61331  -0.60245
 Alpha  occ. eigenvalues --   -0.58745  -0.57191  -0.55857  -0.54636  -0.53872
 Alpha  occ. eigenvalues --   -0.53221  -0.52954  -0.52624  -0.50639  -0.49681
 Alpha  occ. eigenvalues --   -0.49220  -0.47942  -0.45928  -0.45442  -0.45255
 Alpha  occ. eigenvalues --   -0.43637  -0.43089  -0.42179  -0.37975  -0.37537
 Alpha  occ. eigenvalues --   -0.37343  -0.35301  -0.34016  -0.33732  -0.32187
 Alpha  occ. eigenvalues --   -0.28495
 Alpha virt. eigenvalues --   -0.06138  -0.02838   0.00834   0.01699   0.05577
 Alpha virt. eigenvalues --    0.06750   0.08137   0.09277   0.10685   0.10720
 Alpha virt. eigenvalues --    0.11466   0.12009   0.12888   0.13050   0.14236

 Mulliken charges:
               1
     1  O   -0.347639
     2  C    0.252548
     3  C    0.087138
     4  C   -0.221355
     5  C   -0.127283
     6  C   -0.127283
     7  C   -0.221349
     8  C    0.087131
     9  C    0.252532
    10  O   -0.347627
    11  N   -0.101015
    12  C    0.135669
    13  C   -0.212104
    14  C   -0.181868
    15  C    0.073987
    16  Cl  -0.100186
    17  C   -0.181878
    18  C   -0.212099
    19  H    0.182416
    20  H    0.175472
    21  H    0.175471
    22  H    0.182416
    23  H    0.212593
    24  H    0.175852
    25  H    0.175852
    26  H    0.212607
 Sum of Mulliken charges =  -0.00000

 Dipole moment (field-independent basis, Debye):
    X=             -5.8095    Y=             -0.0001    Z=              0.0002  Tot=              5.8095
 Quadrupole moment (field-independent basis, Debye-Ang):
   XX=            -90.9807   YY=           -110.5571   ZZ=           -112.9376
   XY=              0.0012   XZ=              0.0050   YZ=              0.0010

 Normal termination of Gaussian 16 at Tue Sep 17 12:06:39 2024.
