 Gaussian 16, Revision C.02,

 ----------------------------------------------------------------------
 #p B3LYP/6-31G(d,p) EmpiricalDispersion=GD3BJ opt freq scf(xqc,tight)
 integral(grid=ultrafine)
 ----------------------------------------------------------------------

 ----------------------------------
 opt-freq conformers_unique/conf_aa
 ----------------------------------
 Symbolic Z-matrix:
 Charge =  0 Multiplicity = 1

 SCF Done:  E(RB3LYP) =  -1203.81171066     A.U. after   15 cycles
 SCF Done:  E(RB3LYP) =  -1203.81415611     A.U. after   12 cycles
 SCF Done:  E(RB3LYP) =  -1203.81427335     A.U. after   10 cycles
 SCF Done:  E(RB3LYP) =  -1203.81428774     A.U. after   11 cycles
 SCF Done:  E(RB3LYP) =  -1203.81430181     A.U. after    9 cycles
 SCF Done:  E(RB3LYP) =  -1203.81430297     A.U. after    8 cycles
 SCF Done:  E(RB3LYP) =  -1203.81430326     A.U. after    8 cycles
 Optimization completed.
    -- Stationary point found.
 Normal termination of Gaussian 16 at Tue Sep 17 09:53:11 2024.

 ----------------------------------------------------------------------
 #P Geom=AllCheck Guess=TCheck SCRF=Check GenChk RB3LYP/6-31G(d,p) Freq
 ----------------------------------------------------------------------

 Structure from the checkpoint file:  "smiles_00037_conf_0.chk"
 ----------------------------------
 opt-freq conformers_unique/conf_aa
 ----------------------------------
 Charge =  0 Multiplicity = 1

 SCF Done:  E(RB3LYP) =  -1203.81430326     A.U. after    1 cycles

                      1                      2                      3
                      A                      A                      A
 Frequencies --     35.8229                54.1949                66.6476
 Red. masses --      8.7026                 4.1496                 8.9766
 Frc consts  --      0.0066                 0.0072                 0.0235
 IR Inten    --      0.7226                 0.6885                 1.0776

                      4                      5                      6
                      A                      A                      A
 Frequencies --    134.2492               138.8844               164.0009
 Red. masses --      8.7529                 5.1479                 9.8864
 Frc consts  --      0.0929                 0.0585                 0.1567
 IR Inten    --      2.6553                 0.1472                 3.1835

                      7                      8                      9
                      A                      A                      A
 Frequencies --    197.0810               230.7208               250.6514
 Red. masses --      6.9732                11.9618                 7.0058
 Frc consts  --      0.1596                 0.3752                 0.2593
 IR Inten    --      0.4914                 0.9015                 0.3692

                     10                     11                     12
                      A                      A                      A
 Frequencies --    283.0298               349.4394               365.5446
 Red. masses --      9.1580                 6.2102                10.8501
 Frc consts  --      0.4322                 0.4468                 0.8542
 IR Inten    --      1.1088                 0.0982                14.4766

                     13                     14                     15
                      A                      A                      A
 Frequencies --    403.6418               420.1423               427.2791
 Red. masses --      4.1399                 3.0774                 3.9836
 Frc consts  --      0.3974                 0.3201                 0.4285
 IR Inten    --      0.2781                 0.5517                 0.3734

                     16                     17                     18
                      A                      A                      A
 Frequencies --    464.1143               470.1543               520.2562
 Red. masses --      5.0336                 9.4646                 2.8767
 Frc consts  --      0.6388                 1.2326                 0.4587
 IR Inten    --      0.9119                34.4550                11.4620

                     19                     20                     21
                      A                      A                      A
 Frequencies --    541.5459               587.9038               645.9920
 Red. masses --      7.4362                10.5171                 7.0498
 Frc consts  --      1.2849                 2.1417                 1.7333
 IR Inten    --     10.0779                 4.1412                 0.5349

                     22                     23                     24
                      A                      A                      A
 Frequencies --    675.8126               679.2539               703.6936
 Red. masses --      5.7322                 7.6897                 4.8316
 Frc consts  --      1.5425                 2.0904                 1.4096
 IR Inten    --      2.7265                 2.4946                 4.3166

                     25                     26                     27
                      A                      A                      A
 Frequencies --    720.8270               727.9115               743.8221
 Red. masses --      2.9884                 5.6549                 6.7662
 Frc consts  --      0.9149                 1.7654                 2.2056
 IR Inten    --     48.7388                 4.4964                10.9294

                     28                     29                     30
                      A                      A                      A
 Frequencies --    782.3019               798.3111               825.2574
 Red. masses --      6.7143                 1.6457                 1.2494
 Frc consts  --      2.4210                 0.6179                 0.5013
 IR Inten    --      1.8159                16.9768                 0.2080

                     31                     32                     33
                      A                      A                      A
 Frequencies --    835.7787               868.2949               898.4243
 Red. masses --      1.6146                 6.5053                 7.3633
 Frc consts  --      0.6645                 2.8897                 3.5017
 IR Inten    --     40.9384                39.3624                20.8026

                     34                     35                     36
                      A                      A                      A
 Frequencies --    910.0616               952.4160               961.3851
 Red. masses --      1.3316                 1.2903                 1.3362
 Frc consts  --      0.6498                 0.6896                 0.7277
 IR Inten    --      0.1020                 2.7917                 0.4490

                     37                     38                     39
                      A                      A                      A
 Frequencies --    974.7695              1009.5535              1034.7861
 Red. masses --      1.3819                 1.3026                 3.5815
 Frc consts  --      0.7736                 0.7822                 2.2595
 IR Inten    --      0.8518                 0.0180                18.6185

                     40                     41                     42
                      A                      A                      A
 Frequencies --   1038.8152              1096.0193              1113.3815
 Red. masses --      2.1904                 3.6577                 3.0789
 Frc consts  --      1.3927                 2.5888                 2.2487
 IR Inten    --      9.3901                69.8917                15.2859

                     43                     44                     45
                      A                      A                      A
 Frequencies --   1115.4186              1138.8720              1150.7710
 Red. masses --      3.2398                 2.9554                 1.3978
 Frc consts  --      2.3749                 2.2584                 1.0906
 IR Inten    --     72.9542                 0.5946                28.2091

                     46                     47                     48
                      A                      A                      A
 Frequencies --   1189.4557              1199.2353              1212.7054
 Red. masses --      1.1721                 2.2185                 1.1498
 Frc consts  --      0.9770                 1.8798                 0.9963
 IR Inten    --      8.2048                 2.2663                 0.3084

                     49                     50                     51
                      A                      A                      A
 Frequencies --   1257.4504              1312.8878              1333.9547
 Red. masses --      4.4979                 1.5731                 1.4721
 Frc consts  --      4.1902                 1.5976                 1.5433
 IR Inten    --     63.9523                 1.0486                 0.5269

                     52                     53                     54
                      A                      A                      A
 Frequencies --   1347.1725              1397.1793              1410.4641
 Red. masses --      5.4411                 7.3799                 6.4252
 Frc consts  --      5.8181                 8.4880                 7.5311
 IR Inten    --      1.0288               419.6044               207.6919

                     55                     56                     57
                      A                      A                      A
 Frequencies --   1454.3705              1509.3084              1509.4120
 Red. masses --      3.0314                 2.6585                 2.5008
 Frc consts  --      3.7778                 3.5682                 3.3569
 IR Inten    --      5.6497                 1.1884                 6.6647

                     58                     59                     60
                      A                      A                      A
 Frequencies --   1540.8723              1633.1462              1654.1930
 Red. masses --      2.4653                 7.3793                 5.8001
 Frc consts  --      3.4487                11.5962                 9.3511
 IR Inten    --    229.4154                 0.2816                 0.8675

                     61                     62                     63
                      A                      A                      A
 Frequencies --   1664.4691              1666.7879              1808.2977
 Red. masses --      6.9929                 7.3159                12.8532
 Frc consts  --     11.4146                11.9750                24.7628
 IR Inten    --     13.7245                 1.4156               483.7021

                     64                     65                     66
                      A                      A                      A
 Frequencies --   1857.0592              3194.7873              3207.7940
 Red. masses --     12.9886                 1.0870                 1.0910
 Frc consts  --     26.3915                 6.5368                 6.6146
 IR Inten    --     31.5479                 1.8670                 8.5287

                     67                     68                     69
                      A                      A                      A
 Frequencies --   3219.9646              3221.8574              3222.1655
 Red. masses --      1.0939                 1.0909                 1.0911
 Frc consts  --      6.6825                 6.6717                 6.6741
 IR Inten    --      3.5783                 3.5009                 1.8173

                     70                     71                     72
                      A                      A                      A
 Frequencies --   3223.1121              3251.8609              3251.9802
 Red. masses --      1.0966                 1.0931                 1.0939
 Frc consts  --      6.7117                 6.8102                 6.8162
 IR Inten    --     10.7274                 0.4510                 0.0282

 - Thermochemistry -
 -------------------
 Temperature   298.150 Kelvin.  Pressure   1.00000 Atm.
 Atom     1 has atomic number  8 and mass  15.99491

 Molecular mass:   257.02436 amu.
 Principal axes and moments of inertia in atomic units:
                           1         2         3
     Eigenvalues --  1360.90625********************
           X            1.00000   0.00000   0.00000
           Y           -0.00000   0.99987   0.01637
           Z           -0.00000  -0.01637   0.99987
 This molecule is an asymmetric top.
 Rotational symmetry number  1.
 Warning -- assumption of classical behavior for rotation
           may cause significant error
 Rotational temperatures (Kelvin)      0.06364     0.00840     0.00755
 Rotational constants (GHZ):           1.32613     0.17513     0.15728
 Zero-point vibrational energy     492019.2 (Joules/Mol)
                                  117.59540 (Kcal/Mol)
 Warning -- explicit consideration of  20 degrees of freedom as
           vibrations may cause significant error
 Vibrational temperatures:     51.54    77.97    95.89   193.15   199.82
          (Kelvin)            235.96   283.56   331.96   360.63   407.22
                              502.77   525.94   580.75   604.49   614.76
                              667.76   676.45   748.53   779.16   845.86
                              929.44   972.34   977.29  1012.46  1037.11
                             1047.30  1070.19  1125.56  1148.59  1187.36
                             1202.50  1249.28  1292.63  1309.38  1370.31
                             1383.22  1402.48  1452.52  1488.83  1494.62
                             1576.93  1601.91  1604.84  1638.58  1655.70
                             1711.36  1725.43  1744.81  1809.19  1888.95
                             1919.26  1938.28  2010.23  2029.34  2092.51
                             2171.56  2171.71  2216.97  2349.73  2380.01
                             2394.80  2398.14  2601.74  2671.89  4596.59
                             4615.30  4632.81  4635.53  4635.98  4637.34
                             4678.70  4678.87

 Zero-point correction=                           0.187400 (Hartree/Particle)
 Thermal correction to Energy=                    0.201087
 Thermal correction to Enthalpy=                  0.202031
 Thermal correction to Gibbs Free Energy=         0.145705
 Sum of electronic and zero-point Energies=          -1203.626903
 Sum of electronic and thermal Energies=             -1203.613217
 Sum of electronic and thermal Enthalpies=           -1203.612273
 Sum of electronic and thermal Free Energies=        -1203.668598

                     E (Thermal)             CV                S
                      KCal/Mol        Cal/Mol-Kelvin    Cal/Mol-Kelvin
 Total                  126.184             53.610            118.546
 Electronic               0.000              0.000              0.000
 Translational            0.889              2.981             42.532
 Rotational               0.889              2.981             33.442
 Vibrational            124.406             47.649             42.572
 Vibration     1          0.594              1.982              5.478
 Vibration     2          0.596              1.976              4.658
 Vibration     3          0.598              1.970              4.250
 Vibration     4          0.613              1.919              2.884
 Vibration     5          0.614              1.914              2.819
 Vibration     6          0.623              1.887              2.503
 Vibration     7          0.636              1.844              2.160
 Vibration     8          0.652              1.794              1.873
 Vibration     9          0.663              1.762              1.726
 Vibration    10          0.682              1.705              1.515
 Vibration    11          0.727              1.576              1.169
 Vibration    12          0.739              1.543              1.098
 Vibration    13          0.769              1.462              0.949
 Vibration    14          0.783              1.426              0.891
 Vibration    15          0.789              1.411              0.868
 Vibration    16          0.822              1.330              0.754
 Vibration    17          0.827              1.316              0.737
 Vibration    18          0.875              1.205              0.609
 Vibration    19          0.897              1.158              0.562
 Vibration    20          0.945              1.058              0.471

                           ! Non-Optimized Parameters !
 Normal termination of Gaussian 16 at Tue Sep 17 09:56:20 2024.

 ----------------------------------------------------------------------
 #p M062X/def2tzvp geom=check guess=read scf(xqc,tight) integral(grid=u
 ltrafine) scrf(SMD, solvent=1,4-Dioxane) polar prop=efg volume
 ----------------------------------------------------------------------

 ---
 spe
 ---
 Structure from the checkpoint file:  "smiles_00037_conf_0.chk"
 Charge =  0 Multiplicity = 1

 SCF Done:  E(RM062X) =  -1203.74205768     A.U. after   12 cycles

  Exact polarizability:     329.237       0.001     209.276       0.004       5.906     113.505
 Approx polarizability:     303.743       0.002     266.142       0.003       6.605     146.014

 Normal termination of Gaussian 16 at Tue Sep 17 11:43:01 2024.
 Gaussian 16:  ES64L-G16RevC.02  7-Dec-2021

 ----------------------------------------------------------------------
 #p M062X/def2tzvp geom=check guess=read scf(xqc,tight) integral(grid=u
 ltrafine) scrf(SMD, solvent=1,4-Dioxane) nmr=giao
 ----------------------------------------------------------------------

 ---
 spe
 ---
 Structure from the checkpoint file:  "smiles_00037_conf_0.chk"
 Charge =  0 Multiplicity = 1

                         Standard orientation:
 ---------------------------------------------------------------------
 Center     Atomic      Atomic             Coordinates (Angstroms)
 Number     Number       Type             X           Y           Z
 ---------------------------------------------------------------------
      1          8           0        0.831512   -2.288280    0.340275
      2          6           0        1.239085   -1.158766    0.173711
      3          6           0        2.648851   -0.689014    0.104414
      4          6           0        3.829400   -1.407446    0.214812
      5          6           0        5.028348   -0.692217    0.106135
      6          6           0        5.028348    0.692274   -0.105729
      7          6           0        3.829400    1.407464   -0.214658
      8          6           0        2.648851    0.688991   -0.104534
      9          6           0        1.239085    1.158697   -0.174140
     10          8           0        0.831512    2.288244   -0.340476
     11          7           0        0.437426   -0.000026   -0.000156
     12          6           0       -0.984366   -0.000014   -0.000080
     13          6           0       -1.683096    1.061581    0.584529
     14          6           0       -3.074948    1.065758    0.577987
     15          6           0       -3.760661    0.000013    0.000054
     16         17           0       -5.517343    0.000028    0.000140
     17          6           0       -3.075023   -1.065745   -0.577945
     18          6           0       -1.683172   -1.061596   -0.584620
     19          1           0        3.814418   -2.479439    0.378078
     20          1           0        5.974656   -1.217385    0.186473
     21          1           0        5.974657    1.217473   -0.185860
     22          1           0        3.814419    2.479458   -0.377924
     23          1           0       -1.142423    1.886995    1.026680
     24          1           0       -3.622505    1.887500    1.023907
     25          1           0       -3.622639   -1.887477   -1.023811
     26          1           0       -1.142556   -1.887020   -1.026822
 ---------------------------------------------------------------------

 SCF Done:  E(RM062X) =  -1203.74205768     A.U. after    1 cycles

      1  O    Isotropic =  -188.5959   Anisotropy =   841.1871

      2  C    Isotropic =    -2.6252   Anisotropy =   107.3406

      3  C    Isotropic =    30.9181   Anisotropy =   191.5383

      4  C    Isotropic =    39.5448   Anisotropy =   223.1699

      5  C    Isotropic =    26.6554   Anisotropy =   228.6330

      6  C    Isotropic =    26.6559   Anisotropy =   228.6343

      7  C    Isotropic =    39.5450   Anisotropy =   223.1704

      8  C    Isotropic =    30.9176   Anisotropy =   191.5389

      9  C    Isotropic =    -2.6254   Anisotropy =   107.3399

     10  O    Isotropic =  -188.5941   Anisotropy =   841.1842

     11  N    Isotropic =    45.6072   Anisotropy =   145.4795

     12  C    Isotropic =    32.6699   Anisotropy =   167.2874

     13  C    Isotropic =    38.0218   Anisotropy =   204.7227

     14  C    Isotropic =    34.8528   Anisotropy =   186.8295

     15  C    Isotropic =    23.5105   Anisotropy =   141.9338

     16  Cl   Isotropic =   682.8334   Anisotropy =   508.2941

     17  C    Isotropic =    34.8531   Anisotropy =   186.8302

     18  C    Isotropic =    38.0215   Anisotropy =   204.7189

     19  H    Isotropic =    22.9672   Anisotropy =     7.2328

     20  H    Isotropic =    23.1404   Anisotropy =     6.5519

     21  H    Isotropic =    23.1404   Anisotropy =     6.5519

     22  H    Isotropic =    22.9672   Anisotropy =     7.2328

     23  H    Isotropic =    23.1900   Anisotropy =    10.0216

     24  H    Isotropic =    23.5596   Anisotropy =     8.6905

     25  H    Isotropic =    23.5596   Anisotropy =     8.6904

     26  H    Isotropic =    23.1899   Anisotropy =    10.0213

 The electronic state is 1-A.
 Alpha  occ. eigenvalues -- -102.64691 -19.63887 -19.63887 -14.81674 -10.68251
 Alpha  occ. eigenvalues --  -10.68249 -10.60939 -10.60313 -10.57804 -10.57728
 Alpha  occ. eigenvalues --  -10.57392 -10.57392 -10.57117 -10.57043 -10.55904
 Alpha  occ. eigenvalues --  -10.55901 -10.55804 -10.55804  -9.80935  -7.53132
 Alpha  occ. eigenvalues --   -7.52623  -7.52610  -1.20803  -1.19066  -1.08760
 Alpha  occ. eigenvalues --   -1.00307  -0.98942  -0.94244  -0.89553  -0.87688
 Alpha  occ. eigenvalues --   -0.86202  -0.83017  -0.77067  -0.75142  -0.72381
 Alpha  occ. eigenvalues --   -0.69082  -0.69066  -0.65887  -0.61355  -0.60150
 Alpha  occ. eigenvalues --   -0.58131  -0.57386  -0.56032  -0.54260  -0.53750
 Alpha  occ. eigenvalues --   -0.53249  -0.52746  -0.52482  -0.50914  -0.50210
 Alpha  occ. eigenvalues --   -0.48785  -0.47708  -0.45827  -0.45229  -0.45056
 Alpha  occ. eigenvalues --   -0.43669  -0.43467  -0.41414  -0.37992  -0.37756
 Alpha  occ. eigenvalues --   -0.37029  -0.35555  -0.33793  -0.33671  -0.32315
 Alpha  occ. eigenvalues --   -0.28979
 Alpha virt. eigenvalues --   -0.06012  -0.02567   0.00762   0.01223   0.05656
 Alpha virt. eigenvalues --    0.06364   0.08199   0.09353   0.10559   0.10693
 Alpha virt. eigenvalues --    0.11422   0.11483   0.13062   0.13095   0.13558

 Mulliken charges:
               1
     1  O   -0.323209
     2  C    0.240825
     3  C    0.061520
     4  C   -0.220831
     5  C   -0.127093
     6  C   -0.127093
     7  C   -0.220824
     8  C    0.061493
     9  C    0.240844
    10  O   -0.323214
    11  N   -0.132879
    12  C    0.211121
    13  C   -0.204940
    14  C   -0.176996
    15  C    0.072372
    16  Cl  -0.098812
    17  C   -0.176997
    18  C   -0.204942
    19  H    0.182135
    20  H    0.175124
    21  H    0.175124
    22  H    0.182134
    23  H    0.190690
    24  H    0.176878
    25  H    0.176878
    26  H    0.190690
 Sum of Mulliken charges =  -0.00000

 Dipole moment (field-independent basis, Debye):
    X=              5.5101    Y=              0.0000    Z=             -0.0000  Tot=              5.5101
 Quadrupole moment (field-independent basis, Debye-Ang):
   XX=            -89.9295   YY=           -112.7967   ZZ=           -110.6955
   XY=              0.0005   XZ=              0.0015   YZ=              5.6724

 Normal termination of Gaussian 16 at Tue Sep 17 12:22:08 2024.
