 Gaussian 16, Revision C.02,

 ----------------------------------------------------------------------
 #p B3LYP/6-31G(d,p) EmpiricalDispersion=GD3BJ opt freq scf(xqc,tight)
 integral(grid=ultrafine)
 ----------------------------------------------------------------------

 ----------------------------------
 opt-freq conformers_unique/conf_ab
 ----------------------------------
 Symbolic Z-matrix:
 Charge =  0 Multiplicity = 1

 SCF Done:  E(RB3LYP) =  -3128.15952955     A.U. after   15 cycles
 SCF Done:  E(RB3LYP) =  -3128.16144746     A.U. after   12 cycles
 SCF Done:  E(RB3LYP) =  -3128.16151287     A.U. after   10 cycles
 SCF Done:  E(RB3LYP) =  -3128.16152030     A.U. after   10 cycles
 SCF Done:  E(RB3LYP) =  -3128.16153479     A.U. after    9 cycles
 SCF Done:  E(RB3LYP) =  -3128.16155406     A.U. after   10 cycles
 SCF Done:  E(RB3LYP) =  -3128.16157514     A.U. after   11 cycles
 SCF Done:  E(RB3LYP) =  -3128.16162705     A.U. after   11 cycles
 SCF Done:  E(RB3LYP) =  -3128.16256673     A.U. after   14 cycles
 SCF Done:  E(RB3LYP) =  -3128.16077711     A.U. after   15 cycles
 SCF Done:  E(RB3LYP) =  -3128.16545766     A.U. after   11 cycles
 SCF Done:  E(RB3LYP) =  -3128.16555457     A.U. after   11 cycles
 SCF Done:  E(RB3LYP) =  -3128.16560477     A.U. after   10 cycles
 SCF Done:  E(RB3LYP) =  -3128.16566029     A.U. after   11 cycles
 SCF Done:  E(RB3LYP) =  -3128.16566468     A.U. after    9 cycles
 SCF Done:  E(RB3LYP) =  -3128.16566552     A.U. after    8 cycles
 SCF Done:  E(RB3LYP) =  -3128.16566561     A.U. after    7 cycles
 Optimization completed.
    -- Stationary point found.
 Normal termination of Gaussian 16 at Tue Sep 17 09:51:33 2024.

 ----------------------------------------------------------------------
 #P Geom=AllCheck Guess=TCheck SCRF=Check GenChk RB3LYP/6-31G(d,p) Freq
 ----------------------------------------------------------------------

 Structure from the checkpoint file:  "smiles_00087_conf_1.chk"
 ----------------------------------
 opt-freq conformers_unique/conf_ab
 ----------------------------------
 Charge =  0 Multiplicity = 1

 SCF Done:  E(RB3LYP) =  -3128.16566561     A.U. after    1 cycles

                      1                      2                      3
                      A                      A                      A
 Frequencies --     40.2066                59.0813                70.7770
 Red. masses --      4.8838                 3.4847                 3.5375
 Frc consts  --      0.0047                 0.0072                 0.0104
 IR Inten    --      0.3931                 0.5688                 0.2699

                      4                      5                      6
                      A                      A                      A
 Frequencies --     94.6989               133.6575               181.1197
 Red. masses --      4.0566                 5.7255                 4.6812
 Frc consts  --      0.0214                 0.0603                 0.0905
 IR Inten    --      2.4801                 0.6871                 0.2801

                      7                      8                      9
                      A                      A                      A
 Frequencies --    225.5554               228.9070               271.6852
 Red. masses --      8.0476                 3.9979                 2.1324
 Frc consts  --      0.2412                 0.1234                 0.0927
 IR Inten    --      0.1620                 6.9572                 1.9180

                     10                     11                     12
                      A                      A                      A
 Frequencies --    289.9069               305.1912               391.7819
 Red. masses --      3.1751                 4.9895                 5.5095
 Frc consts  --      0.1572                 0.2738                 0.4982
 IR Inten    --      3.9036                 4.3980                 0.8170

                     13                     14                     15
                      A                      A                      A
 Frequencies --    423.9435               446.5959               493.9141
 Red. masses --      3.0110                 6.9786                 3.8316
 Frc consts  --      0.3188                 0.8201                 0.5507
 IR Inten    --      0.0125                20.8807                 8.5218

                     16                     17                     18
                      A                      A                      A
 Frequencies --    577.4461               600.4981               644.9786
 Red. masses --      1.9972                 3.7749                 6.9351
 Frc consts  --      0.3924                 0.8020                 1.6998
 IR Inten    --      4.0225                 2.1023                 1.6942

                     19                     20                     21
                      A                      A                      A
 Frequencies --    698.3242               710.4058               763.3138
 Red. masses --      5.3183                 4.4569                 3.0600
 Frc consts  --      1.5280                 1.3252                 1.0505
 IR Inten    --      8.6254                 5.1283                 7.6051

                     22                     23                     24
                      A                      A                      A
 Frequencies --    769.1571               851.5669               860.4643
 Red. masses --      3.8311                 1.3154                 1.7259
 Frc consts  --      1.3354                 0.5620                 0.7529
 IR Inten    --     24.2663                10.2213                16.2826

                     25                     26                     27
                      A                      A                      A
 Frequencies --    865.2518               891.1220               916.9471
 Red. masses --      1.6480                 1.9549                 3.2447
 Frc consts  --      0.7269                 0.9146                 1.6074
 IR Inten    --     15.0362                 8.9048                 8.7096

                     28                     29                     30
                      A                      A                      A
 Frequencies --    929.5836               951.6302               979.3312
 Red. masses --      2.2094                 1.6237                 1.3336
 Frc consts  --      1.1248                 0.8663                 0.7536
 IR Inten    --      2.3871                14.0547                 0.1660

                     31                     32                     33
                      A                      A                      A
 Frequencies --    986.1316               991.0003              1031.1738
 Red. masses --      1.7508                 1.3639                 4.2893
 Frc consts  --      1.0031                 0.7892                 2.6872
 IR Inten    --      1.1682                 1.9376                45.0910

                     34                     35                     36
                      A                      A                      A
 Frequencies --   1046.8058              1094.2461              1134.9005
 Red. masses --      1.8955                 2.6953                 1.3332
 Frc consts  --      1.2238                 1.9014                 1.0117
 IR Inten    --      0.9541                30.9717                 9.0233

                     37                     38                     39
                      A                      A                      A
 Frequencies --   1144.4426              1171.6468              1184.8907
 Red. masses --      1.6672                 1.7951                 2.1488
 Frc consts  --      1.2865                 1.4519                 1.7775
 IR Inten    --      7.4796                 6.0917                 6.8107

                     40                     41                     42
                      A                      A                      A
 Frequencies --   1203.6219              1209.0521              1236.0106
 Red. masses --      1.3179                 1.5207                 2.3421
 Frc consts  --      1.1249                 1.3098                 2.1081
 IR Inten    --      3.2800                12.8263                25.7150

                     43                     44                     45
                      A                      A                      A
 Frequencies --   1258.7607              1280.4746              1326.3014
 Red. masses --      1.2733                 1.3220                 1.3177
 Frc consts  --      1.1887                 1.2771                 1.3657
 IR Inten    --     16.5176                13.6748                 0.0728

                     46                     47                     48
                      A                      A                      A
 Frequencies --   1329.7129              1344.0393              1357.4857
 Red. masses --      1.3052                10.1832                 1.2936
 Frc consts  --      1.3597                10.8382                 1.4044
 IR Inten    --      0.1535                 3.7602                 2.7317

                     49                     50                     51
                      A                      A                      A
 Frequencies --   1376.3883              1385.9222              1425.9945
 Red. masses --      1.5118                 1.4093                 3.9786
 Frc consts  --      1.6874                 1.5949                 4.7667
 IR Inten    --      1.4167                 6.7011               247.3567

                     52                     53                     54
                      A                      A                      A
 Frequencies --   1443.3947              1504.2124              1511.8176
 Red. masses --      4.0263                 1.0913                 1.1033
 Frc consts  --      4.9423                 1.4548                 1.4857
 IR Inten    --    269.4332                 3.3971                 3.0428

                     55                     56                     57
                      A                      A                      A
 Frequencies --   1528.6516              1530.6784              1541.5444
 Red. masses --      1.0966                 2.2692                 1.1245
 Frc consts  --      1.5098                 3.1324                 1.5745
 IR Inten    --      1.0301                 9.9104                 3.1744

                     58                     59                     60
                      A                      A                      A
 Frequencies --   1621.1140              1647.9265              1731.1142
 Red. masses --      7.3253                 5.7861                12.0022
 Frc consts  --     11.3424                 9.2580                21.1915
 IR Inten    --      3.6538                60.7689               259.9375

                     61                     62                     63
                      A                      A                      A
 Frequencies --   3017.8151              3055.7445              3058.4737
 Red. masses --      1.0716                 1.0690                 1.0654
 Frc consts  --      5.7500                 5.8810                 5.8717
 IR Inten    --     42.4478                24.3195                17.8470

                     64                     65                     66
                      A                      A                      A
 Frequencies --   3064.0802              3104.3900              3118.5339
 Red. masses --      1.0613                 1.1000                 1.0970
 Frc consts  --      5.8706                 6.2458                 6.2858
 IR Inten    --     24.4158                27.1162                22.3837

                     67                     68                     69
                      A                      A                      A
 Frequencies --   3122.3024              3128.4658              3208.4144
 Red. masses --      1.0968                 1.1046                 1.0878
 Frc consts  --      6.3001                 6.3695                 6.5976
 IR Inten    --     20.7675                39.3993                 5.0300

                     70                     71                     72
                      A                      A                      A
 Frequencies --   3214.6513              3224.6496              3227.8444
 Red. masses --      1.0882                 1.0949                 1.0956
 Frc consts  --      6.6257                 6.7078                 6.7256
 IR Inten    --      0.0394                 5.0822                 1.0225

 - Thermochemistry -
 -------------------
 Temperature   298.150 Kelvin.  Pressure   1.00000 Atm.
 Atom     1 has atomic number  8 and mass  15.99491

 Molecular mass:   253.01023 amu.
 Principal axes and moments of inertia in atomic units:
                           1         2         3
     Eigenvalues --  1095.653179686.54061**********
           X            0.99985  -0.01689   0.00266
           Y            0.01684   0.99968   0.01878
           Z           -0.00298  -0.01873   0.99982
 This molecule is an asymmetric top.
 Rotational symmetry number  1.
 Warning -- assumption of classical behavior for rotation
           may cause significant error
 Rotational temperatures (Kelvin)      0.07905     0.00894     0.00832
 Rotational constants (GHZ):           1.64718     0.18631     0.17327
 Zero-point vibrational energy     555018.6 (Joules/Mol)
                                  132.65263 (Kcal/Mol)
 Warning -- explicit consideration of  17 degrees of freedom as
           vibrations may cause significant error
 Vibrational temperatures:     57.85    85.00   101.83   136.25   192.30
          (Kelvin)            260.59   324.52   329.35   390.89   417.11
                              439.10   563.69   609.96   642.55   710.63
                              830.82   863.98   927.98  1004.73  1022.12
                             1098.24  1106.65  1225.21  1238.02  1244.90
                             1282.13  1319.28  1337.46  1369.18  1409.04
                             1418.82  1425.83  1483.63  1506.12  1574.38
                             1632.87  1646.60  1685.74  1704.79  1731.74
                             1739.56  1778.34  1811.08  1842.32  1908.25
                             1913.16  1933.77  1953.12  1980.32  1994.03
                             2051.69  2076.72  2164.23  2175.17  2199.39
                             2202.30  2217.94  2332.42  2371.00  2490.69
                             4341.96  4396.53  4400.46  4408.53  4466.52
                             4486.87  4492.30  4501.16  4616.19  4625.17
                             4639.55  4644.15

 Zero-point correction=                           0.211395 (Hartree/Particle)
 Thermal correction to Energy=                    0.223852
 Thermal correction to Enthalpy=                  0.224796
 Thermal correction to Gibbs Free Energy=         0.170478
 Sum of electronic and zero-point Energies=          -3127.954270
 Sum of electronic and thermal Energies=             -3127.941813
 Sum of electronic and thermal Enthalpies=           -3127.940869
 Sum of electronic and thermal Free Energies=        -3127.995187

                     E (Thermal)             CV                S
                      KCal/Mol        Cal/Mol-Kelvin    Cal/Mol-Kelvin
 Total                  140.469             46.897            114.322
 Electronic               0.000              0.000              0.000
 Translational            0.889              2.981             42.485
 Rotational               0.889              2.981             33.069
 Vibrational            138.692             40.935             38.768
 Vibration     1          0.594              1.981              5.249
 Vibration     2          0.596              1.974              4.488
 Vibration     3          0.598              1.968              4.132
 Vibration     4          0.603              1.953              3.561
 Vibration     5          0.613              1.920              2.893
 Vibration     6          0.630              1.865              2.317
 Vibration     7          0.650              1.802              1.914
 Vibration     8          0.652              1.797              1.888
 Vibration     9          0.675              1.725              1.585
 Vibration    10          0.686              1.693              1.475
 Vibration    11          0.696              1.664              1.388
 Vibration    12          0.759              1.488              0.993
 Vibration    13          0.786              1.418              0.879
 Vibration    14          0.806              1.368              0.806
 Vibration    15          0.850              1.264              0.674
 Vibration    16          0.934              1.080              0.490
 Vibration    17          0.959              1.031              0.449

 Optimization completed.
    -- Stationary point found.
 Normal termination of Gaussian 16 at Tue Sep 17 09:54:17 2024.

 ----------------------------------------------------------------------
 #p M062X/def2tzvp geom=check guess=read scf(xqc,tight) integral(grid=u
 ltrafine) scrf(SMD, solvent=1,4-Dioxane) polar prop=efg volume
 ----------------------------------------------------------------------

 ---
 spe
 ---
 Structure from the checkpoint file:  "smiles_00087_conf_1.chk"
 Charge =  0 Multiplicity = 1

 SCF Done:  E(RM062X) =  -3130.56618187     A.U. after   12 cycles

  Exact polarizability:     251.639       4.735     165.460      -6.598      14.566     123.687
 Approx polarizability:     232.191       9.323     195.304      -8.528      21.426     151.557

 Normal termination of Gaussian 16 at Tue Sep 17 11:13:15 2024.
 Gaussian 16:  ES64L-G16RevC.02  7-Dec-2021

 ----------------------------------------------------------------------
 #p M062X/def2tzvp geom=check guess=read scf(xqc,tight) integral(grid=u
 ltrafine) scrf(SMD, solvent=1,4-Dioxane) nmr=giao
 ----------------------------------------------------------------------

 ---
 spe
 ---
 Structure from the checkpoint file:  "smiles_00087_conf_1.chk"
 Charge =  0 Multiplicity = 1

                         Standard orientation:
 ---------------------------------------------------------------------
 Center     Atomic      Atomic             Coordinates (Angstroms)
 Number     Number       Type             X           Y           Z
 ---------------------------------------------------------------------
      1          8           0        2.211727    2.245975   -0.275011
      2          6           0        1.912379    1.052763   -0.224425
      3          6           0        0.472343    0.634375   -0.151326
      4          6           0       -0.405738    1.476235    0.542391
      5          6           0       -1.762892    1.182060    0.620364
      6          6           0       -2.245840    0.046435   -0.028653
      7         35           0       -4.107851   -0.365083    0.066315
      8          6           0       -1.399792   -0.789359   -0.752920
      9          6           0       -0.039381   -0.491450   -0.806504
     10          7           0        2.873899    0.080462   -0.246438
     11          6           0        2.744938   -1.307862    0.227459
     12          6           0        4.105539   -1.587281    0.877148
     13          6           0        5.068627   -0.773271    0.000988
     14          6           0        4.282622    0.513157   -0.277500
     15          1           0       -0.005666    2.368984    1.009737
     16          1           0       -2.441242    1.825083    1.168457
     17          1           0       -1.799651   -1.653927   -1.269287
     18          1           0        0.617375   -1.129766   -1.386570
     19          1           0        1.904739   -1.410050    0.916592
     20          1           0        2.577561   -1.995558   -0.612465
     21          1           0        4.112523   -1.203074    1.903160
     22          1           0        4.339925   -2.654187    0.911681
     23          1           0        6.029130   -0.574783    0.482227
     24          1           0        5.266663   -1.309061   -0.934165
     25          1           0        4.444500    1.275528    0.492948
     26          1           0        4.520992    0.972843   -1.240340
 ---------------------------------------------------------------------

 SCF Done:  E(RM062X) =  -3130.56618187     A.U. after    1 cycles

      1  O    Isotropic =  -143.5346   Anisotropy =   683.8470

      2  C    Isotropic =    -4.3689   Anisotropy =   133.7638

      3  C    Isotropic =    25.5995   Anisotropy =   206.4108

      4  C    Isotropic =    30.1840   Anisotropy =   217.0681

      5  C    Isotropic =    30.3809   Anisotropy =   185.0250

      6  C    Isotropic =    20.9759   Anisotropy =   148.1261

      7  Br   Isotropic =  2070.2796   Anisotropy =  1283.0711

      8  C    Isotropic =    33.6801   Anisotropy =   183.4919

      9  C    Isotropic =    33.7399   Anisotropy =   211.1468

     10  N    Isotropic =   104.2867   Anisotropy =   182.2735

     11  C    Isotropic =   130.9103   Anisotropy =    40.0202

     12  C    Isotropic =   156.0093   Anisotropy =    18.7256

     13  C    Isotropic =   158.0121   Anisotropy =    20.4956

     14  C    Isotropic =   134.5098   Anisotropy =    41.7755

     15  H    Isotropic =    23.1236   Anisotropy =     8.9486

     16  H    Isotropic =    23.5178   Anisotropy =    10.3557

     17  H    Isotropic =    23.6674   Anisotropy =    10.5972

     18  H    Isotropic =    23.4406   Anisotropy =    10.0869

     19  H    Isotropic =    28.2851   Anisotropy =     7.1513

     20  H    Isotropic =    28.2218   Anisotropy =     8.8275

     21  H    Isotropic =    30.1764   Anisotropy =     9.3471

     22  H    Isotropic =    30.0225   Anisotropy =    10.8863

     23  H    Isotropic =    29.8465   Anisotropy =    10.9355

     24  H    Isotropic =    29.9625   Anisotropy =    10.0733

     25  H    Isotropic =    28.1827   Anisotropy =     8.3105

     26  H    Isotropic =    28.3650   Anisotropy =     8.2486

 The electronic state is 1-A.
 Alpha  occ. eigenvalues -- -485.37857 -63.36337 -57.18281 -57.18047 -57.18039
 Alpha  occ. eigenvalues --  -19.58970 -14.77387 -10.64303 -10.60998 -10.57627
 Alpha  occ. eigenvalues --  -10.56548 -10.56360 -10.56251 -10.56134 -10.55996
 Alpha  occ. eigenvalues --  -10.55747 -10.54133 -10.53919  -9.02982  -6.85387
 Alpha  occ. eigenvalues --   -6.84519  -6.84492  -2.88764  -2.88451  -2.88422
 Alpha  occ. eigenvalues --   -2.87612  -2.87612  -1.15637  -1.04950  -0.98638
 Alpha  occ. eigenvalues --   -0.91121  -0.88842  -0.86091  -0.83870  -0.82405
 Alpha  occ. eigenvalues --   -0.74044  -0.71031  -0.69185  -0.67385  -0.63630
 Alpha  occ. eigenvalues --   -0.60799  -0.57914  -0.55380  -0.54267  -0.52564
 Alpha  occ. eigenvalues --   -0.51763  -0.50584  -0.49776  -0.49413  -0.47299
 Alpha  occ. eigenvalues --   -0.46711  -0.45771  -0.43600  -0.42239  -0.41914
 Alpha  occ. eigenvalues --   -0.41434  -0.40799  -0.39540  -0.37922  -0.35475
 Alpha  occ. eigenvalues --   -0.33606  -0.32418  -0.30377  -0.29908
 Alpha virt. eigenvalues --   -0.01478   0.00525   0.03376   0.05995   0.07569
 Alpha virt. eigenvalues --    0.09251   0.10407   0.10680   0.11426   0.11837
 Alpha virt. eigenvalues --    0.12364   0.13214   0.13765   0.14507   0.15541

 Mulliken charges:
               1
     1  O   -0.424705
     2  C    0.280841
     3  C    0.060825
     4  C   -0.188521
     5  C   -0.160203
     6  C    0.047541
     7  Br  -0.107894
     8  C   -0.158348
     9  C   -0.203068
    10  N   -0.150385
    11  C   -0.252782
    12  C   -0.281391
    13  C   -0.293560
    14  C   -0.193170
    15  H    0.182757
    16  H    0.184067
    17  H    0.182400
    18  H    0.194301
    19  H    0.187249
    20  H    0.153351
    21  H    0.156967
    22  H    0.155361
    23  H    0.155233
    24  H    0.154275
    25  H    0.162643
    26  H    0.156218
 Sum of Mulliken charges =  -0.00000

 Dipole moment (field-independent basis, Debye):
    X=              2.4695    Y=             -4.0569    Z=              0.7069  Tot=              4.8017
 Quadrupole moment (field-independent basis, Debye-Ang):
   XX=            -88.9623   YY=            -99.8785   ZZ=            -94.3448
   XY=            -12.1829   XZ=              1.1973   YZ=              5.3333

 Normal termination of Gaussian 16 at Tue Sep 17 11:41:58 2024.
