 Gaussian 16, Revision C.02,

 ----------------------------------------------------------------------
 #p B3LYP/6-31G(d,p) EmpiricalDispersion=GD3BJ opt freq scf(xqc,tight)
 integral(grid=ultrafine)
 ----------------------------------------------------------------------

 ----------------------------------
 opt-freq conformers_unique/conf_ac
 ----------------------------------
 Symbolic Z-matrix:
 Charge =  0 Multiplicity = 1

 SCF Done:  E(RB3LYP) =  -3128.15883346     A.U. after   15 cycles
 SCF Done:  E(RB3LYP) =  -3128.16118388     A.U. after   12 cycles
 SCF Done:  E(RB3LYP) =  -3128.16141782     A.U. after   14 cycles
 SCF Done:  E(RB3LYP) =  -3128.16173904     A.U. after   11 cycles
 SCF Done:  E(RB3LYP) =  -3128.16182178     A.U. after   10 cycles
 SCF Done:  E(RB3LYP) =  -3128.16184304     A.U. after   10 cycles
 SCF Done:  E(RB3LYP) =  -3128.16185790     A.U. after    9 cycles
 SCF Done:  E(RB3LYP) =  -3128.16184527     A.U. after    9 cycles
 SCF Done:  E(RB3LYP) =  -3128.16190140     A.U. after   10 cycles
 SCF Done:  E(RB3LYP) =  -3128.16208679     A.U. after   12 cycles
 SCF Done:  E(RB3LYP) =  -3128.16371097     A.U. after   10 cycles
 SCF Done:  E(RB3LYP) =  -3128.16379661     A.U. after   11 cycles
 SCF Done:  E(RB3LYP) =  -3128.16381951     A.U. after   11 cycles
 SCF Done:  E(RB3LYP) =  -3128.16384228     A.U. after   11 cycles
 SCF Done:  E(RB3LYP) =  -3128.16385504     A.U. after   10 cycles
 SCF Done:  E(RB3LYP) =  -3128.16385580     A.U. after    8 cycles
 SCF Done:  E(RB3LYP) =  -3128.16385624     A.U. after    9 cycles
 Optimization completed.
    -- Stationary point found.
 Normal termination of Gaussian 16 at Tue Sep 17 09:55:06 2024.

 ----------------------------------------------------------------------
 #P Geom=AllCheck Guess=TCheck SCRF=Check GenChk RB3LYP/6-31G(d,p) Freq
 ----------------------------------------------------------------------

 Structure from the checkpoint file:  "smiles_00087_conf_2.chk"
 ----------------------------------
 opt-freq conformers_unique/conf_ac
 ----------------------------------
 Charge =  0 Multiplicity = 1

 SCF Done:  E(RB3LYP) =  -3128.16385624     A.U. after    1 cycles

                      1                      2                      3
                      A                      A                      A
 Frequencies --     37.7496                43.5096                61.1394
 Red. masses --      3.3464                 3.6928                 3.1930
 Frc consts  --      0.0028                 0.0041                 0.0070
 IR Inten    --      0.5001                 0.7045                 0.1866

                      4                      5                      6
                      A                      A                      A
 Frequencies --     75.2821               136.3101               171.9182
 Red. masses --      4.9657                 6.6143                 4.7363
 Frc consts  --      0.0166                 0.0724                 0.0825
 IR Inten    --      2.2025                 1.0477                 0.9352

                      7                      8                      9
                      A                      A                      A
 Frequencies --    212.6709               227.0460               267.7692
 Red. masses --      2.6110                 9.7381                 2.7156
 Frc consts  --      0.0696                 0.2958                 0.1147
 IR Inten    --      3.8548                 0.4036                 0.7300

                     10                     11                     12
                      A                      A                      A
 Frequencies --    285.8293               316.3209               398.6376
 Red. masses --      5.6928                 3.3146                 5.4425
 Frc consts  --      0.2740                 0.1954                 0.5096
 IR Inten    --      4.5809                 8.6460                 1.1334

                     13                     14                     15
                      A                      A                      A
 Frequencies --    424.1595               443.8115               495.0955
 Red. masses --      3.0698                 6.7334                 4.0450
 Frc consts  --      0.3254                 0.7814                 0.5842
 IR Inten    --      0.0543                19.2602                 9.3401

                     16                     17                     18
                      A                      A                      A
 Frequencies --    573.6139               604.4323               643.9616
 Red. masses --      1.9962                 3.6813                 6.9131
 Frc consts  --      0.3870                 0.7924                 1.6890
 IR Inten    --      2.2249                 4.7152                 1.2719

                     19                     20                     21
                      A                      A                      A
 Frequencies --    700.0509               719.2189               763.9839
 Red. masses --      5.1420                 4.6742                 2.9997
 Frc consts  --      1.4847                 1.4245                 1.0316
 IR Inten    --      7.6587                 3.2983                14.7579

                     22                     23                     24
                      A                      A                      A
 Frequencies --    769.4861               851.4584               860.3506
 Red. masses --      3.7604                 1.3234                 1.6678
 Frc consts  --      1.3118                 0.5653                 0.7273
 IR Inten    --     17.0256                 2.0344                18.6010

                     25                     26                     27
                      A                      A                      A
 Frequencies --    863.5110               886.8818               923.3081
 Red. masses --      1.7122                 1.9929                 3.8774
 Frc consts  --      0.7522                 0.9236                 1.9475
 IR Inten    --     25.6265                 1.8135                16.3580

                     28                     29                     30
                      A                      A                      A
 Frequencies --    928.9933               937.4861               979.7941
 Red. masses --      2.1975                 1.5952                 1.3612
 Frc consts  --      1.1174                 0.8260                 0.7699
 IR Inten    --      1.7326                 3.0625                 0.6311

                     31                     32                     33
                      A                      A                      A
 Frequencies --    986.2278               995.4382              1031.5208
 Red. masses --      1.3567                 1.6436                 4.4421
 Frc consts  --      0.7775                 0.9596                 2.7848
 IR Inten    --      1.5097                 0.7251                46.3253

                     34                     35                     36
                      A                      A                      A
 Frequencies --   1050.0390              1093.8320              1133.9670
 Red. masses --      1.9054                 2.7181                 1.3564
 Frc consts  --      1.2378                 1.9161                 1.0276
 IR Inten    --      0.8307                29.9958                 9.2703

                     37                     38                     39
                      A                      A                      A
 Frequencies --   1140.9113              1163.7444              1191.7742
 Red. masses --      1.6681                 1.9621                 2.5718
 Frc consts  --      1.2793                 1.5656                 2.1521
 IR Inten    --      9.4106                31.4057                 5.5369

                     40                     41                     42
                      A                      A                      A
 Frequencies --   1203.0624              1205.8479              1231.5310
 Red. masses --      1.6017                 1.1765                 2.0751
 Frc consts  --      1.3659                 1.0079                 1.8543
 IR Inten    --     12.6568                 7.4537                 7.8863

                     43                     44                     45
                      A                      A                      A
 Frequencies --   1263.9179              1285.7462              1326.4564
 Red. masses --      1.2291                 1.3576                 1.3004
 Frc consts  --      1.1569                 1.3223                 1.3481
 IR Inten    --     17.6770                39.2867                 1.1033

                     46                     47                     48
                      A                      A                      A
 Frequencies --   1330.1126              1341.9785              1359.5922
 Red. masses --      1.3215                 9.1315                 1.2715
 Frc consts  --      1.3775                 9.6891                 1.3848
 IR Inten    --      0.5927                 4.4427                 3.3476

                     49                     50                     51
                      A                      A                      A
 Frequencies --   1371.1904              1383.6908              1420.7202
 Red. masses --      1.5245                 1.4284                 4.4615
 Frc consts  --      1.6888                 1.6113                 5.3058
 IR Inten    --     25.6460                 7.6783               349.4023

                     52                     53                     54
                      A                      A                      A
 Frequencies --   1438.0936              1504.5068              1511.9828
 Red. masses --      3.2665                 1.0894                 1.1010
 Frc consts  --      3.9802                 1.4529                 1.4830
 IR Inten    --    115.4110                 3.6730                 4.3927

                     55                     56                     57
                      A                      A                      A
 Frequencies --   1529.7930              1531.9860              1543.0442
 Red. masses --      2.0790                 1.1415                 1.1293
 Frc consts  --      2.8667                 1.5785                 1.5843
 IR Inten    --     10.7921                 5.7179                 4.8317

                     58                     59                     60
                      A                      A                      A
 Frequencies --   1621.2150              1648.1253              1737.1054
 Red. masses --      7.2947                 5.8062                11.6638
 Frc consts  --     11.2964                 9.2923                20.7368
 IR Inten    --      2.3651                57.7186               265.3398

                     61                     62                     63
                      A                      A                      A
 Frequencies --   3034.5628              3050.2538              3058.7784
 Red. masses --      1.0726                 1.0660                 1.0683
 Frc consts  --      5.8195                 5.8436                 5.8892
 IR Inten    --     51.6494                23.9668                21.0111

                     64                     65                     66
                      A                      A                      A
 Frequencies --   3063.7947              3104.3521              3118.4383
 Red. masses --      1.0617                 1.0982                 1.0994
 Frc consts  --      5.8718                 6.2356                 6.2994
 IR Inten    --     28.2924                25.4694                30.2435

                     67                     68                     69
                      A                      A                      A
 Frequencies --   3125.9718              3145.8636              3204.7539
 Red. masses --      1.1047                 1.0941                 1.0882
 Frc consts  --      6.3603                 6.3795                 6.5848
 IR Inten    --     40.4042                 5.9739                 6.6850

                     70                     71                     72
                      A                      A                      A
 Frequencies --   3212.6007              3223.7130              3226.6764
 Red. masses --      1.0882                 1.0946                 1.0957
 Frc consts  --      6.6174                 6.7025                 6.7210
 IR Inten    --      0.2129                 4.5729                 1.0349

 - Thermochemistry -
 -------------------
 Temperature   298.150 Kelvin.  Pressure   1.00000 Atm.
 Atom     1 has atomic number  8 and mass  15.99491

 Molecular mass:   253.01023 amu.
 Principal axes and moments of inertia in atomic units:
                           1         2         3
     Eigenvalues --  1126.906509589.31943**********
           X            0.99985  -0.01681  -0.00439
           Y            0.01669   0.99950  -0.02670
           Z            0.00484   0.02662   0.99963
 This molecule is an asymmetric top.
 Rotational symmetry number  1.
 Warning -- assumption of classical behavior for rotation
           may cause significant error
 Rotational temperatures (Kelvin)      0.07686     0.00903     0.00844
 Rotational constants (GHZ):           1.60150     0.18820     0.17591
 Zero-point vibrational energy     554772.3 (Joules/Mol)
                                  132.59377 (Kcal/Mol)
 Warning -- explicit consideration of  17 degrees of freedom as
           vibrations may cause significant error
 Vibrational temperatures:     54.31    62.60    87.97   108.31   196.12
          (Kelvin)            247.35   305.99   326.67   385.26   411.24
                              455.12   573.55   610.27   638.55   712.33
                              825.30   869.64   926.52  1007.22  1034.80
                             1099.20  1107.12  1225.06  1237.85  1242.40
                             1276.03  1328.43  1336.61  1348.83  1409.71
                             1418.96  1432.21  1484.13  1510.77  1573.78
                             1631.53  1641.52  1674.37  1714.70  1730.94
                             1734.95  1771.90  1818.50  1849.90  1908.47
                             1913.74  1930.81  1956.15  1972.84  1990.82
                             2044.10  2069.10  2164.65  2175.41  2201.03
                             2204.19  2220.10  2332.57  2371.28  2499.31
                             4366.06  4388.63  4400.90  4408.12  4466.47
                             4486.74  4497.58  4526.20  4610.93  4622.22
                             4638.20  4642.47

 Zero-point correction=                           0.211302 (Hartree/Particle)
 Thermal correction to Energy=                    0.223877
 Thermal correction to Enthalpy=                  0.224821
 Thermal correction to Gibbs Free Energy=         0.169735
 Sum of electronic and zero-point Energies=          -3127.952555
 Sum of electronic and thermal Energies=             -3127.939979
 Sum of electronic and thermal Enthalpies=           -3127.939035
 Sum of electronic and thermal Free Energies=        -3127.994121

                     E (Thermal)             CV                S
                      KCal/Mol        Cal/Mol-Kelvin    Cal/Mol-Kelvin
 Total                  140.485             46.933            115.939
 Electronic               0.000              0.000              0.000
 Translational            0.889              2.981             42.485
 Rotational               0.889              2.981             33.072
 Vibrational            138.707             40.971             40.382
 Vibration     1          0.594              1.982              5.374
 Vibration     2          0.595              1.980              5.093
 Vibration     3          0.597              1.973              4.420
 Vibration     4          0.599              1.965              4.010
 Vibration     5          0.614              1.917              2.855
 Vibration     6          0.626              1.877              2.414
 Vibration     7          0.644              1.822              2.021
 Vibration     8          0.651              1.800              1.902
 Vibration     9          0.673              1.732              1.611
 Vibration    10          0.684              1.700              1.499
 Vibration    11          0.703              1.642              1.329
 Vibration    12          0.765              1.473              0.968
 Vibration    13          0.786              1.418              0.878
 Vibration    14          0.803              1.375              0.815
 Vibration    15          0.851              1.261              0.670
 Vibration    16          0.930              1.088              0.497
 Vibration    17          0.963              1.022              0.442

                           ! Non-Optimized Parameters !
 Normal termination of Gaussian 16 at Tue Sep 17 09:57:45 2024.

 ----------------------------------------------------------------------
 #p M062X/def2tzvp geom=check guess=read scf(xqc,tight) integral(grid=u
 ltrafine) scrf(SMD, solvent=1,4-Dioxane) polar prop=efg volume
 ----------------------------------------------------------------------

 ---
 spe
 ---
 Structure from the checkpoint file:  "smiles_00087_conf_2.chk"
 Charge =  0 Multiplicity = 1

 SCF Done:  E(RM062X) =  -3130.56372213     A.U. after   12 cycles

  Exact polarizability:     248.192       6.098     161.031       7.233     -15.436     128.748
 Approx polarizability:     230.238      10.741     189.476      10.117     -22.229     157.831

 Normal termination of Gaussian 16 at Tue Sep 17 11:16:45 2024.
 Gaussian 16:  ES64L-G16RevC.02  7-Dec-2021

 ----------------------------------------------------------------------
 #p M062X/def2tzvp geom=check guess=read scf(xqc,tight) integral(grid=u
 ltrafine) scrf(SMD, solvent=1,4-Dioxane) nmr=giao
 ----------------------------------------------------------------------

 ---
 spe
 ---
 Structure from the checkpoint file:  "smiles_00087_conf_2.chk"
 Charge =  0 Multiplicity = 1

                         Standard orientation:
 ---------------------------------------------------------------------
 Center     Atomic      Atomic             Coordinates (Angstroms)
 Number     Number       Type             X           Y           Z
 ---------------------------------------------------------------------
      1          8           0        2.224282    2.245326    0.390396
      2          6           0        1.929465    1.053540    0.314026
      3          6           0        0.488612    0.641442    0.208181
      4          6           0       -0.346419    1.403130   -0.617835
      5          6           0       -1.701519    1.107214   -0.727227
      6          6           0       -2.226188    0.057421    0.025252
      7         35           0       -4.085941   -0.353416   -0.111185
      8          6           0       -1.424343   -0.691442    0.882804
      9          6           0       -0.064736   -0.396833    0.965219
     10          7           0        2.873388    0.059881    0.327511
     11          6           0        4.297341    0.437492    0.318115
     12          6           0        4.925650   -0.546223   -0.671267
     13          6           0        4.103383   -1.822125   -0.444938
     14          6           0        2.674630   -1.302108   -0.213963
     15          1           0        0.080453    2.235569   -1.166166
     16          1           0       -2.346577    1.685650   -1.377867
     17          1           0       -1.857590   -1.486261    1.478263
     18          1           0        0.559768   -0.962123    1.648176
     19          1           0        4.384548    1.486424    0.034318
     20          1           0        4.723627    0.319033    1.322689
     21          1           0        4.787144   -0.181990   -1.695403
     22          1           0        5.996125   -0.689227   -0.504511
     23          1           0        4.151229   -2.529112   -1.276848
     24          1           0        4.459388   -2.339327    0.452763
     25          1           0        2.103384   -1.257780   -1.148202
     26          1           0        2.123202   -1.942120    0.478330
 ---------------------------------------------------------------------

 SCF Done:  E(RM062X) =  -3130.56372213     A.U. after    1 cycles

      1  O    Isotropic =  -151.9128   Anisotropy =   683.4679

      2  C    Isotropic =    -6.7989   Anisotropy =   138.9889

      3  C    Isotropic =    24.0787   Anisotropy =   207.9674

      4  C    Isotropic =    31.0837   Anisotropy =   214.2697

      5  C    Isotropic =    30.4589   Anisotropy =   185.3461

      6  C    Isotropic =    21.5389   Anisotropy =   147.4867

      7  Br   Isotropic =  2070.9490   Anisotropy =  1286.3723

      8  C    Isotropic =    33.4470   Anisotropy =   183.8373

      9  C    Isotropic =    33.7369   Anisotropy =   209.4359

     10  N    Isotropic =   105.0781   Anisotropy =   184.4148

     11  C    Isotropic =   136.2498   Anisotropy =    45.2844

     12  C    Isotropic =   158.5858   Anisotropy =    16.7755

     13  C    Isotropic =   155.9961   Anisotropy =    24.9398

     14  C    Isotropic =   132.5898   Anisotropy =    42.3906

     15  H    Isotropic =    23.3428   Anisotropy =     8.7251

     16  H    Isotropic =    23.5345   Anisotropy =    10.2929

     17  H    Isotropic =    23.6706   Anisotropy =    10.4861

     18  H    Isotropic =    23.4758   Anisotropy =     9.5732

     19  H    Isotropic =    27.1200   Anisotropy =     6.7652

     20  H    Isotropic =    28.8605   Anisotropy =    10.1049

     21  H    Isotropic =    30.3226   Anisotropy =     9.9798

     22  H    Isotropic =    30.0895   Anisotropy =    11.1606

     23  H    Isotropic =    29.8660   Anisotropy =    10.3462

     24  H    Isotropic =    29.8961   Anisotropy =     9.9812

     25  H    Isotropic =    28.8585   Anisotropy =     5.4400

     26  H    Isotropic =    28.0022   Anisotropy =     8.3720

 The electronic state is 1-A.
 Alpha  occ. eigenvalues -- -485.37836 -63.36316 -57.18260 -57.18025 -57.18018
 Alpha  occ. eigenvalues --  -19.59141 -14.77371 -10.64446 -10.60959 -10.57505
 Alpha  occ. eigenvalues --  -10.56407 -10.56373 -10.56227 -10.56124 -10.56012
 Alpha  occ. eigenvalues --  -10.55821 -10.54149 -10.53817  -9.02961  -6.85366
 Alpha  occ. eigenvalues --   -6.84497  -6.84471  -2.88743  -2.88429  -2.88400
 Alpha  occ. eigenvalues --   -2.87590  -2.87590  -1.15720  -1.04923  -0.98634
 Alpha  occ. eigenvalues --   -0.91122  -0.88768  -0.86098  -0.83836  -0.82354
 Alpha  occ. eigenvalues --   -0.74022  -0.71038  -0.69022  -0.67438  -0.63544
 Alpha  occ. eigenvalues --   -0.61092  -0.57543  -0.55156  -0.54240  -0.52979
 Alpha  occ. eigenvalues --   -0.51647  -0.50378  -0.50149  -0.49549  -0.47229
 Alpha  occ. eigenvalues --   -0.46782  -0.45314  -0.43614  -0.42342  -0.41907
 Alpha  occ. eigenvalues --   -0.41431  -0.40815  -0.39421  -0.38050  -0.35457
 Alpha  occ. eigenvalues --   -0.33626  -0.32405  -0.30354  -0.29933
 Alpha virt. eigenvalues --   -0.01245   0.00509   0.03350   0.06090   0.07150
 Alpha virt. eigenvalues --    0.09311   0.10138   0.10674   0.11378   0.11682
 Alpha virt. eigenvalues --    0.12461   0.13582   0.13850   0.14459   0.14996

 Mulliken charges:
               1
     1  O   -0.418859
     2  C    0.275160
     3  C    0.053940
     4  C   -0.182794
     5  C   -0.160095
     6  C    0.046333
     7  Br  -0.108623
     8  C   -0.159252
     9  C   -0.205436
    10  N   -0.158100
    11  C   -0.215678
    12  C   -0.276006
    13  C   -0.295286
    14  C   -0.216858
    15  H    0.180515
    16  H    0.183626
    17  H    0.182106
    18  H    0.200903
    19  H    0.176215
    20  H    0.153143
    21  H    0.155680
    22  H    0.152115
    23  H    0.155967
    24  H    0.157373
    25  H    0.179759
    26  H    0.144151
 Sum of Mulliken charges =  -0.00000

 Dipole moment (field-independent basis, Debye):
    X=              2.4465    Y=             -3.9921    Z=             -0.8679  Tot=              4.7619
 Quadrupole moment (field-independent basis, Debye-Ang):
   XX=            -89.4810   YY=           -100.8036   ZZ=            -93.3362
   XY=            -11.6926   XZ=             -1.7013   YZ=             -6.1874

 Normal termination of Gaussian 16 at Tue Sep 17 11:45:46 2024.
