 Gaussian 16, Revision C.02,

 ----------------------------------------------------------------------
 #p B3LYP/gen pseudo=read EmpiricalDispersion=GD3BJ opt freq scf(xqc,ti
 ght) integral(grid=ultrafine)
 ----------------------------------------------------------------------

 ----------------------------------
 opt-freq conformers_unique/conf_aa
 ----------------------------------
 Symbolic Z-matrix:
 Charge =  0 Multiplicity = 1

 SCF Done:  E(RB3LYP) =  -361.030233303     A.U. after   14 cycles
 SCF Done:  E(RB3LYP) =  -361.031922509     A.U. after   11 cycles
 SCF Done:  E(RB3LYP) =  -361.032021907     A.U. after   10 cycles
 SCF Done:  E(RB3LYP) =  -361.032025747     A.U. after    8 cycles
 Optimization completed.
    -- Stationary point found.
 Normal termination of Gaussian 16 at Tue Sep 17 09:49:50 2024.

 ------------------------------------------------------------------
 #P Geom=AllCheck Guess=TCheck SCRF=Check GenChk RB3LYP/ChkBas Freq
 ------------------------------------------------------------------

 Structure from the checkpoint file:  "smiles_00053_conf_0.chk"
 ----------------------------------
 opt-freq conformers_unique/conf_aa
 ----------------------------------
 Charge =  0 Multiplicity = 1

 SCF Done:  E(RB3LYP) =  -361.032025747     A.U. after    1 cycles

                      1                      2                      3
                      A                      A                      A
 Frequencies --     30.4114                74.6775               167.1267
 Red. masses --      1.0172                 3.9292                 1.7232
 Frc consts  --      0.0006                 0.0129                 0.0284
 IR Inten    --      0.2312                 0.0049                 3.4950

                      4                      5                      6
                      A                      A                      A
 Frequencies --    174.7539               187.2213               187.7490
 Red. masses --      1.0968                 4.9934                 1.3428
 Frc consts  --      0.0197                 0.1031                 0.0279
 IR Inten    --      0.0002                 0.0417                 0.8728

                      7                      8                      9
                      A                      A                      A
 Frequencies --    213.5653               231.0500               281.1536
 Red. masses --      7.9431                 2.5064                 2.5102
 Frc consts  --      0.2135                 0.0788                 0.1169
 IR Inten    --      1.9538                 0.0007                 0.1510

                     10                     11                     12
                      A                      A                      A
 Frequencies --    298.7896               332.9626               506.0708
 Red. masses --      4.5224                 2.7622                 2.8449
 Frc consts  --      0.2379                 0.1804                 0.4293
 IR Inten    --      0.9680                 0.0014                 0.1910

                     13                     14                     15
                      A                      A                      A
 Frequencies --    528.0732               543.4200               551.4972
 Red. masses --      3.1688                 4.9268                 3.5689
 Frc consts  --      0.5206                 0.8572                 0.6395
 IR Inten    --      0.0236                 1.6899                 2.7797

                     16                     17                     18
                      A                      A                      A
 Frequencies --    560.4054               588.4964               715.3418
 Red. masses --      5.1067                 4.1599                 3.4059
 Frc consts  --      0.9449                 0.8488                 1.0269
 IR Inten    --     10.2957                 0.0515                 0.1611

                     19                     20                     21
                      A                      A                      A
 Frequencies --    870.3557               893.5298               953.3390
 Red. masses --      1.2701                 1.2984                 2.5743
 Frc consts  --      0.5669                 0.6108                 1.3785
 IR Inten    --     11.1939                 0.0026                 1.0286

                     22                     23                     24
                      A                      A                      A
 Frequencies --    970.1868              1016.6326              1042.4459
 Red. masses --      3.1126                 7.2611                 1.5617
 Frc consts  --      1.7262                 4.4216                 0.9999
 IR Inten    --     26.2124                58.1782                 0.9864

                     25                     26                     27
                      A                      A                      A
 Frequencies --   1043.3467              1061.4198              1063.8029
 Red. masses --      1.6290                 1.6724                 1.5127
 Frc consts  --      1.0448                 1.1101                 1.0086
 IR Inten    --      5.7506                 1.1890                 4.4718

                     28                     29                     30
                      A                      A                      A
 Frequencies --   1065.6820              1065.8841              1209.6838
 Red. masses --      1.5468                 1.5074                 1.4134
 Frc consts  --      1.0350                 1.0090                 1.2186
 IR Inten    --     15.6724                 0.0522                 4.7796

                     31                     32                     33
                      A                      A                      A
 Frequencies --   1282.1975              1330.2728              1336.3509
 Red. masses --      1.4244                 7.0562                 5.1310
 Frc consts  --      1.3798                 7.3570                 5.3987
 IR Inten    --      0.9440                 1.1184                 4.7470

                     34                     35                     36
                      A                      A                      A
 Frequencies --   1425.8650              1428.9486              1432.6931
 Red. masses --      1.2494                 1.2356                 1.3141
 Frc consts  --      1.4966                 1.4865                 1.5892
 IR Inten    --      0.0502                 0.4367                 0.8552

                     37                     38                     39
                      A                      A                      A
 Frequencies --   1448.9929              1451.2297              1494.6679
 Red. masses --      2.4965                 2.3337                 1.0434
 Frc consts  --      3.0882                 2.8958                 1.3734
 IR Inten    --      1.2319                 9.6115                11.2932

                     40                     41                     42
                      A                      A                      A
 Frequencies --   1494.9932              1501.7797              1503.8004
 Red. masses --      1.0430                 1.0508                 1.0530
 Frc consts  --      1.3735                 1.3963                 1.4030
 IR Inten    --      0.0019                 5.2140                 0.2202

                     43                     44                     45
                      A                      A                      A
 Frequencies --   1512.9734              1519.4983              1631.8929
 Red. masses --      1.2351                 1.2713                 7.3384
 Frc consts  --      1.6658                 1.7294                11.5142
 IR Inten    --     27.5054                31.7710                 8.0443

                     46                     47                     48
                      A                      A                      A
 Frequencies --   1648.3781              3041.3310              3051.0907
 Red. masses --      5.2567                 1.0399                 1.0364
 Frc consts  --      8.4154                 5.6673                 5.6842
 IR Inten    --      0.0694                33.0662                33.4446

                     49                     50                     51
                      A                      A                      A
 Frequencies --   3051.6135              3102.1684              3111.4942
 Red. masses --      1.0364                 1.0964                 1.1008
 Frc consts  --      5.6863                 6.2165                 6.2791
 IR Inten    --      2.5827                19.3569                 0.1934

                     52                     53                     54
                      A                      A                      A
 Frequencies --   3111.5549              3129.4285              3135.9611
 Red. masses --      1.1008                 1.1030                 1.1026
 Frc consts  --      6.2795                 6.3646                 6.3884
 IR Inten    --     22.8795                14.0245                15.3123

                     55                     56                     57
                      A                      A                      A
 Frequencies --   3136.5097              3175.2855              3176.8228
 Red. masses --      1.1024                 1.0898                 1.0903
 Frc consts  --      6.3896                 6.4738                 6.4834
 IR Inten    --     14.7937                24.4764                12.7738

 - Thermochemistry -
 -------------------
 Temperature   298.150 Kelvin.  Pressure   1.00000 Atm.
 Atom     1 has atomic number  6 and mass  12.00000

 Molecular mass:   245.98648 amu.
 Principal axes and moments of inertia in atomic units:
                           1         2         3
     Eigenvalues --  1052.921303795.843964815.25545
           X            1.00000  -0.00001   0.00043
           Y            0.00001   1.00000   0.00000
           Z           -0.00043  -0.00000   1.00000
 This molecule is an asymmetric top.
 Rotational symmetry number  1.
 Warning -- assumption of classical behavior for rotation
           may cause significant error
 Rotational temperatures (Kelvin)      0.08226     0.02282     0.01799
 Rotational constants (GHZ):           1.71403     0.47545     0.37480
 Zero-point vibrational energy     455160.4 (Joules/Mol)
                                  108.78594 (Kcal/Mol)
 Warning -- explicit consideration of  17 degrees of freedom as
           vibrations may cause significant error
 Vibrational temperatures:     43.76   107.44   240.46   251.43   269.37
          (Kelvin)            270.13   307.27   332.43   404.52   429.89
                              479.06   728.12   759.78   781.86   793.48
                              806.30   846.72  1029.22  1252.25  1285.59
                             1371.64  1395.88  1462.71  1499.85  1501.14
                             1527.15  1530.58  1533.28  1533.57  1740.47
                             1844.80  1913.97  1922.71  2051.50  2055.94
                             2061.33  2084.78  2088.00  2150.49  2150.96
                             2160.73  2163.63  2176.83  2186.22  2347.93
                             2371.65  4375.80  4389.84  4390.59  4463.33
                             4476.75  4476.83  4502.55  4511.95  4512.74
                             4568.53  4570.74

 Zero-point correction=                           0.173361 (Hartree/Particle)
 Thermal correction to Energy=                    0.184321
 Thermal correction to Enthalpy=                  0.185265
 Thermal correction to Gibbs Free Energy=         0.134929
 Sum of electronic and zero-point Energies=           -360.858664
 Sum of electronic and thermal Energies=              -360.847705
 Sum of electronic and thermal Enthalpies=            -360.846761
 Sum of electronic and thermal Free Energies=         -360.897096

                     E (Thermal)             CV                S
                      KCal/Mol        Cal/Mol-Kelvin    Cal/Mol-Kelvin
 Total                  115.663             39.465            105.940
 Electronic               0.000              0.000              0.000
 Translational            0.889              2.981             42.401
 Rotational               0.889              2.981             31.332
 Vibrational            113.886             33.503             32.207
 Vibration     1          0.594              1.984              5.802
 Vibration     2          0.599              1.966              4.026
 Vibration     3          0.624              1.883              2.468
 Vibration     4          0.627              1.874              2.384
 Vibration     5          0.632              1.857              2.255
 Vibration     6          0.632              1.857              2.250
 Vibration     7          0.644              1.820              2.013
 Vibration     8          0.653              1.794              1.871
 Vibration     9          0.681              1.709              1.527
 Vibration    10          0.692              1.676              1.424
 Vibration    11          0.715              1.610              1.246
 Vibration    12          0.861              1.237              0.643
 Vibration    13          0.883              1.188              0.592
 Vibration    14          0.899              1.154              0.558
 Vibration    15          0.907              1.136              0.541
 Vibration    16          0.916              1.117              0.523
 Vibration    17          0.946              1.056              0.470

                           ! Non-Optimized Parameters !
 Normal termination of Gaussian 16 at Tue Sep 17 09:51:13 2024.

 ----------------------------------------------------------------------
 #p M062X/def2tzvp geom=check guess=read scf(xqc,tight) integral(grid=u
 ltrafine) scrf(SMD, solvent=1,4-Dioxane) polar prop=efg volume
 ----------------------------------------------------------------------

 ---
 spe
 ---
 Structure from the checkpoint file:  "smiles_00053_conf_0.chk"
 Charge =  0 Multiplicity = 1

 SCF Done:  E(RM062X) =  -647.193059356     A.U. after   18 cycles

  Exact polarizability:     219.105      -0.032     167.513       0.534       0.001      96.705
 Approx polarizability:     221.236      -0.035     183.775       0.389       0.000     123.084

 Normal termination of Gaussian 16 at Tue Sep 17 10:43:08 2024.
 Gaussian 16:  ES64L-G16RevC.02  7-Dec-2021

 ----------------------------------------------------------------------
 #p M062X/def2tzvp geom=check guess=read scf(xqc,tight) integral(grid=u
 ltrafine) scrf(SMD, solvent=1,4-Dioxane) nmr=giao
 ----------------------------------------------------------------------

 ---
 spe
 ---
 Structure from the checkpoint file:  "smiles_00053_conf_0.chk"
 Charge =  0 Multiplicity = 1

                         Standard orientation:
 ---------------------------------------------------------------------
 Center     Atomic      Atomic             Coordinates (Angstroms)
 Number     Number       Type             X           Y           Z
 ---------------------------------------------------------------------
      1          6           0        4.480341   -0.000085    0.017868
      2          6           0        2.971913    0.000216   -0.009476
      3          6           0        2.254412    1.197000   -0.009688
      4          6           0        0.854369    1.229908   -0.004118
      5          6           0        0.143561    2.557815   -0.006139
      6          6           0        0.182204    0.000079   -0.000427
      7         53           0       -1.977029   -0.000063    0.003177
      8          6           0        0.854566   -1.229795   -0.004124
      9          6           0        0.143791   -2.557722   -0.006129
     10          6           0        2.254470   -1.196762   -0.009708
     11          1           0        4.855437   -0.015042    1.048567
     12          1           0        4.888222    0.892720   -0.464661
     13          1           0        4.888324   -0.878802   -0.489960
     14          1           0        2.792622    2.141485   -0.015671
     15          1           0       -0.501529    2.663159   -0.884456
     16          1           0        0.864272    3.378895   -0.008516
     17          1           0       -0.499407    2.666472    0.873304
     18          1           0       -0.501332   -2.663077   -0.884419
     19          1           0       -0.499139   -2.666399    0.873338
     20          1           0        0.864529   -3.378778   -0.008539
     21          1           0        2.792780   -2.141211   -0.015740
 ---------------------------------------------------------------------

 SCF Done:  E(RM062X) =  -647.193059356     A.U. after    1 cycles

      1  C    Isotropic =   164.5287   Anisotropy =    40.6015

      2  C    Isotropic =    22.4651   Anisotropy =   226.6904

      3  C    Isotropic =    33.7364   Anisotropy =   161.7066

      4  C    Isotropic =    18.2793   Anisotropy =   211.7413

      5  C    Isotropic =   157.6070   Anisotropy =    35.8148

      6  C    Isotropic =    24.6719   Anisotropy =    90.5955

      7  I    Isotropic =   442.4293   Anisotropy =    50.2457

      8  C    Isotropic =    18.2919   Anisotropy =   211.7447

      9  C    Isotropic =   157.6045   Anisotropy =    35.8172

     10  C    Isotropic =    33.7369   Anisotropy =   162.1908

     11  H    Isotropic =    29.3300   Anisotropy =     8.7122

     12  H    Isotropic =    29.5879   Anisotropy =     7.9228

     13  H    Isotropic =    29.5705   Anisotropy =     7.9447

     14  H    Isotropic =    23.9952   Anisotropy =     9.9081

     15  H    Isotropic =    29.3290   Anisotropy =     6.4272

     16  H    Isotropic =    29.5642   Anisotropy =     9.5953

     17  H    Isotropic =    29.3297   Anisotropy =     6.4271

     18  H    Isotropic =    29.3284   Anisotropy =     6.4267

     19  H    Isotropic =    29.3293   Anisotropy =     6.4272

     20  H    Isotropic =    29.5641   Anisotropy =     9.5972

     21  H    Isotropic =    23.9909   Anisotropy =     9.9304

 The electronic state is 1-A.
 Alpha  occ. eigenvalues --  -10.58739 -10.56126 -10.56123 -10.55221 -10.53881
 Alpha  occ. eigenvalues --  -10.53877 -10.53130 -10.53130 -10.53124  -7.09741
 Alpha  occ. eigenvalues --   -5.09045  -5.08082  -5.08038  -2.05873  -2.05479
 Alpha  occ. eigenvalues --   -2.05450  -2.04647  -2.04646  -0.97455  -0.88635
 Alpha  occ. eigenvalues --   -0.88582  -0.79910  -0.79467  -0.77092  -0.74295
 Alpha  occ. eigenvalues --   -0.66183  -0.64361  -0.55720  -0.54956  -0.50254
 Alpha  occ. eigenvalues --   -0.49776  -0.47897  -0.47846  -0.47040  -0.46624
 Alpha  occ. eigenvalues --   -0.45873  -0.43764  -0.42986  -0.40808  -0.40100
 Alpha  occ. eigenvalues --   -0.37401  -0.33955  -0.31332  -0.29745  -0.28042
 Alpha virt. eigenvalues --    0.00367   0.01491   0.02085   0.07606   0.08981
 Alpha virt. eigenvalues --    0.09719   0.11216   0.11924   0.13821   0.13945
 Alpha virt. eigenvalues --    0.14915   0.15407   0.15664   0.16125   0.17546

 Mulliken charges:
               1
     1  C   -0.495877
     2  C    0.124345
     3  C   -0.241002
     4  C    0.112273
     5  C   -0.496011
     6  C   -0.056329
     7  I   -0.131813
     8  C    0.112855
     9  C   -0.495924
    10  C   -0.240584
    11  H    0.169326
    12  H    0.156226
    13  H    0.156737
    14  H    0.161325
    15  H    0.176693
    16  H    0.148243
    17  H    0.176616
    18  H    0.176688
    19  H    0.176617
    20  H    0.148226
    21  H    0.161372
 Sum of Mulliken charges =  -0.00000

 Dipole moment (field-independent basis, Debye):
    X=              2.2044    Y=             -0.0017    Z=              0.0398  Tot=              2.2048
 Quadrupole moment (field-independent basis, Debye-Ang):
   XX=            -75.1635   YY=            -74.6680   ZZ=            -85.3376
   XY=             -0.0077   XZ=              0.1748   YZ=              0.0001

 Normal termination of Gaussian 16 at Tue Sep 17 11:02:46 2024.
