 Gaussian 16, Revision C.02,

 ----------------------------------------------------------------------
 #p B3LYP/gen pseudo=read EmpiricalDispersion=GD3BJ opt freq scf(xqc,ti
 ght) integral(grid=ultrafine)
 ----------------------------------------------------------------------

 ----------------------------------
 opt-freq conformers_unique/conf_aa
 ----------------------------------
 Symbolic Z-matrix:
 Charge =  0 Multiplicity = 1

 SCF Done:  E(RB3LYP) =  -3192.55119247     A.U. after   15 cycles
 SCF Done:  E(RB3LYP) =  -3192.55381978     A.U. after   12 cycles
 SCF Done:  E(RB3LYP) =  -3192.55390902     A.U. after   11 cycles
 SCF Done:  E(RB3LYP) =  -3192.55391869     A.U. after    9 cycles
 SCF Done:  E(RB3LYP) =  -3192.55391970     A.U. after    8 cycles
 Optimization completed.
    -- Stationary point found.
 Normal termination of Gaussian 16 at Tue Sep 17 09:55:49 2024.

 ------------------------------------------------------------------
 #P Geom=AllCheck Guess=TCheck SCRF=Check GenChk RB3LYP/ChkBas Freq
 ------------------------------------------------------------------

 Structure from the checkpoint file:  "smiles_00049_conf_0.chk"
 ----------------------------------
 opt-freq conformers_unique/conf_aa
 ----------------------------------
 Charge =  0 Multiplicity = 1

 SCF Done:  E(RB3LYP) =  -3192.55391970     A.U. after    1 cycles

                      1                      2                      3
                      A                      A                      A
 Frequencies --     21.9283                35.6032                51.7170
 Red. masses --      6.3513                 4.9074                12.8913
 Frc consts  --      0.0018                 0.0037                 0.0203
 IR Inten    --      0.0004                 0.3869                 0.0680

                      4                      5                      6
                      A                      A                      A
 Frequencies --     80.1053               131.7231               148.7175
 Red. masses --      7.9856                18.0063                 7.9489
 Frc consts  --      0.0302                 0.1841                 0.1036
 IR Inten    --      0.2987                 0.0118                 1.7838

                      7                      8                      9
                      A                      A                      A
 Frequencies --    174.8973               237.5562               248.1039
 Red. masses --     10.6005                 4.9500                 6.7000
 Frc consts  --      0.1910                 0.1646                 0.2430
 IR Inten    --      0.4037                 0.7344                 1.0653

                     10                     11                     12
                      A                      A                      A
 Frequencies --    261.6741               285.3597               362.9439
 Red. masses --     11.7979                 5.8939                 5.6345
 Frc consts  --      0.4760                 0.2828                 0.4373
 IR Inten    --      2.4088                 1.8287                 7.4494

                     13                     14                     15
                      A                      A                      A
 Frequencies --    372.0000               418.0066               429.3059
 Red. masses --      4.6550                 2.9672                 7.7150
 Frc consts  --      0.3795                 0.3055                 0.8378
 IR Inten    --      5.0797                 0.2388                 7.8590

                     16                     17                     18
                      A                      A                      A
 Frequencies --    432.8079               524.1235               543.4224
 Red. masses --      3.2893                 3.1844                 4.9011
 Frc consts  --      0.3630                 0.5154                 0.8528
 IR Inten    --      3.3348                 8.1667                 6.2476

                     19                     20                     21
                      A                      A                      A
 Frequencies --    579.1244               620.7864               646.4587
 Red. masses --      3.5417                 7.4751                 7.1910
 Frc consts  --      0.6999                 1.6973                 1.7706
 IR Inten    --      2.9104                 6.2131                 0.7862

                     22                     23                     24
                      A                      A                      A
 Frequencies --    670.8156               681.4575               709.6495
 Red. masses --      1.3835                 7.6196                 4.0689
 Frc consts  --      0.3668                 2.0848                 1.2073
 IR Inten    --     11.0235                20.2414                11.9464

                     25                     26                     27
                      A                      A                      A
 Frequencies --    728.0040               745.5262               760.0152
 Red. masses --      7.1093                 4.0403                 3.3017
 Frc consts  --      2.2200                 1.3231                 1.1236
 IR Inten    --      4.6783                 0.2723                14.9280

                     28                     29                     30
                      A                      A                      A
 Frequencies --    814.8059               832.3486               840.1309
 Red. masses --      1.6423                 4.5093                 1.4073
 Frc consts  --      0.6424                 1.8406                 0.5852
 IR Inten    --     36.8140                 0.3533                 8.5264

                     31                     32                     33
                      A                      A                      A
 Frequencies --    847.3543               869.0447               930.6860
 Red. masses --      1.3875                 1.5013                 6.6598
 Frc consts  --      0.5870                 0.6681                 3.3987
 IR Inten    --      7.6404                20.3641                40.6299

                     34                     35                     36
                      A                      A                      A
 Frequencies --    957.1852               967.1982               971.1048
 Red. masses --      6.9685                 1.3488                 1.2776
 Frc consts  --      3.7617                 0.7434                 0.7099
 IR Inten    --      7.5465                 0.2086                 0.0261

                     37                     38                     39
                      A                      A                      A
 Frequencies --   1001.5190              1029.8148              1068.7021
 Red. masses --      1.3480                 4.4254                 2.5709
 Frc consts  --      0.7966                 2.7652                 1.7300
 IR Inten    --      0.1073                48.4099                43.9593

                     40                     41                     42
                      A                      A                      A
 Frequencies --   1097.9636              1112.7746              1137.0689
 Red. masses --      2.9919                 2.0409                 1.4150
 Frc consts  --      2.1251                 1.4890                 1.0779
 IR Inten    --     32.7875                 2.7144                 9.8379

                     43                     44                     45
                      A                      A                      A
 Frequencies --   1165.5380              1209.3723              1236.1080
 Red. masses --      1.3191                 1.1418                 1.8272
 Frc consts  --      1.0558                 0.9839                 1.6449
 IR Inten    --      3.0047                 3.0852                31.0638

                     46                     47                     48
                      A                      A                      A
 Frequencies --   1262.2846              1288.8812              1313.0995
 Red. masses --      6.3089                 1.7130                 2.6044
 Frc consts  --      5.9227                 1.6766                 2.6458
 IR Inten    --     35.1840                19.1466                 3.7741

                     49                     50                     51
                      A                      A                      A
 Frequencies --   1334.8378              1358.3834              1377.5700
 Red. masses --      1.9492                 3.3741                 3.5582
 Frc consts  --      2.0462                 3.6682                 3.9784
 IR Inten    --     10.2877                23.5659                77.9703

                     52                     53                     54
                      A                      A                      A
 Frequencies --   1408.6251              1448.1235              1469.6625
 Red. masses --      2.5537                 3.3784                 5.8964
 Frc consts  --      2.9854                 4.1741                 7.5036
 IR Inten    --      6.4816                25.6027                68.5243

                     55                     56                     57
                      A                      A                      A
 Frequencies --   1515.2524              1538.8003              1567.0262
 Red. masses --      2.9103                 4.4065                 5.1324
 Frc consts  --      3.9370                 6.1477                 7.4255
 IR Inten    --     87.2871                13.4276                42.7786

                     58                     59                     60
                      A                      A                      A
 Frequencies --   1586.0968              1622.3948              1654.6944
 Red. masses --      4.9146                 7.2835                 5.7474
 Frc consts  --      7.2845                11.2955                 9.2717
 IR Inten    --      3.7298                 1.6102                 8.2229

                     61                     62                     63
                      A                      A                      A
 Frequencies --   1678.8972              3194.8162              3217.7939
 Red. masses --      7.4749                 1.0886                 1.0887
 Frc consts  --     12.4138                 6.5463                 6.6418
 IR Inten    --      0.6144                10.5597                 1.3337

                     64                     65                     66
                      A                      A                      A
 Frequencies --   3224.8816              3226.9853              3231.6986
 Red. masses --      1.0940                 1.0881                 1.0948
 Frc consts  --      6.7034                 6.6761                 6.7367
 IR Inten    --      4.1427                 1.1034                 1.8730

                     67                     68                     69
                      A                      A                      A
 Frequencies --   3240.3456              3248.7551              3294.8391
 Red. masses --      1.0965                 1.0938                 1.0970
 Frc consts  --      6.7833                 6.8015                 7.0165
 IR Inten    --      1.4199                 0.2839                 0.8441

 - Thermochemistry -
 -------------------
 Temperature   298.150 Kelvin.  Pressure   1.00000 Atm.
 Atom     1 has atomic number 35 and mass  78.91834

 Molecular mass:   397.88748 amu.
 Principal axes and moments of inertia in atomic units:
                           1         2         3
     Eigenvalues --  1068.31753********************
           X            0.99999   0.00523   0.00000
           Y           -0.00523   0.99999  -0.00010
           Z           -0.00001   0.00010   1.00000
 This molecule is an asymmetric top.
 Rotational symmetry number  1.
 Warning -- assumption of classical behavior for rotation
           may cause significant error
 Rotational temperatures (Kelvin)      0.08108     0.00254     0.00247
 Rotational constants (GHZ):           1.68933     0.05302     0.05141
 Zero-point vibrational energy     468309.9 (Joules/Mol)
                                  111.92875 (Kcal/Mol)
 Warning -- explicit consideration of  20 degrees of freedom as
           vibrations may cause significant error
 Vibrational temperatures:     31.55    51.23    74.41   115.25   189.52
          (Kelvin)            213.97   251.64   341.79   356.97   376.49
                              410.57   522.20   535.23   601.42   617.68
                              622.71   754.10   781.86   833.23   893.17
                              930.11   965.15   980.47  1021.03  1047.44
                             1072.65  1093.49  1172.32  1197.56  1208.76
                             1219.15  1250.36  1339.05  1377.18  1391.58
                             1397.20  1440.96  1481.67  1537.62  1579.72
                             1601.03  1635.99  1676.95  1740.02  1778.48
                             1816.15  1854.41  1889.26  1920.53  1954.41
                             1982.02  2026.70  2083.53  2114.52  2180.11
                             2213.99  2254.60  2282.04  2334.26  2380.74
                             2415.56  4596.63  4629.69  4639.89  4642.91
                             4649.69  4662.13  4674.23  4740.54

 Zero-point correction=                           0.178370 (Hartree/Particle)
 Thermal correction to Energy=                    0.192265
 Thermal correction to Enthalpy=                  0.193209
 Thermal correction to Gibbs Free Energy=         0.133476
 Sum of electronic and zero-point Energies=          -3192.375550
 Sum of electronic and thermal Energies=             -3192.361655
 Sum of electronic and thermal Enthalpies=           -3192.360710
 Sum of electronic and thermal Free Energies=        -3192.420444

                     E (Thermal)             CV                S
                      KCal/Mol        Cal/Mol-Kelvin    Cal/Mol-Kelvin
 Total                  120.648             52.599            125.720
 Electronic               0.000              0.000              0.000
 Translational            0.889              2.981             43.834
 Rotational               0.889              2.981             35.500
 Vibrational            118.871             46.637             46.386
 Vibration     1          0.593              1.985              6.451
 Vibration     2          0.594              1.982              5.490
 Vibration     3          0.596              1.977              4.751
 Vibration     4          0.600              1.963              3.888
 Vibration     5          0.612              1.922              2.921
 Vibration     6          0.618              1.904              2.689
 Vibration     7          0.627              1.873              2.382
 Vibration     8          0.656              1.783              1.821
 Vibration     9          0.662              1.766              1.744
 Vibration    10          0.669              1.743              1.651
 Vibration    11          0.683              1.701              1.501
 Vibration    12          0.737              1.549              1.109
 Vibration    13          0.744              1.530              1.072
 Vibration    14          0.781              1.431              0.899
 Vibration    15          0.791              1.406              0.861
 Vibration    16          0.794              1.399              0.850
 Vibration    17          0.879              1.197              0.600
 Vibration    18          0.899              1.154              0.558
 Vibration    19          0.936              1.076              0.487
 Vibration    20          0.981              0.988              0.415

                           ! Non-Optimized Parameters !
 Normal termination of Gaussian 16 at Tue Sep 17 09:58:10 2024.

 ----------------------------------------------------------------------
 #p M062X/def2tzvp geom=check guess=read scf(xqc,tight) integral(grid=u
 ltrafine) scrf(SMD, solvent=1,4-Dioxane) polar prop=efg volume
 ----------------------------------------------------------------------

 ---
 spe
 ---
 Structure from the checkpoint file:  "smiles_00049_conf_0.chk"
 Charge =  0 Multiplicity = 1

 SCF Done:  E(RM062X) =  -3481.51956089     A.U. after   22 cycles

  Exact polarizability:     477.062       3.696     228.913       0.015      -0.038     125.692
 Approx polarizability:     424.241       1.510     288.927       0.015      -0.047     165.080

 Normal termination of Gaussian 16 at Tue Sep 17 12:00:10 2024.
 Gaussian 16:  ES64L-G16RevC.02  7-Dec-2021

 ----------------------------------------------------------------------
 #p M062X/def2tzvp geom=check guess=read scf(xqc,tight) integral(grid=u
 ltrafine) scrf(SMD, solvent=1,4-Dioxane) nmr=giao
 ----------------------------------------------------------------------

 ---
 spe
 ---
 Structure from the checkpoint file:  "smiles_00049_conf_0.chk"
 Charge =  0 Multiplicity = 1

                         Standard orientation:
 ---------------------------------------------------------------------
 Center     Atomic      Atomic             Coordinates (Angstroms)
 Number     Number       Type             X           Y           Z
 ---------------------------------------------------------------------
      1         35           0       -6.968000   -0.288894   -0.000632
      2          6           0       -5.065166   -0.133091   -0.000108
      3          6           0       -4.479007    1.131521   -0.002627
      4          6           0       -3.091743    1.237666   -0.002261
      5          6           0       -2.281110    0.092143    0.000585
      6          6           0       -0.822663    0.237925    0.000707
      7          6           0        0.136787   -0.768586   -0.000376
      8          7           0        1.353316   -0.124787    0.000138
      9          6           0        2.634039   -0.619103   -0.000469
     10          6           0        3.675098    0.266754    0.000246
     11         53           0        5.668354   -0.485436   -0.000682
     12          6           0        3.453633    1.671596    0.001593
     13          6           0        2.167406    2.154880    0.002164
     14          6           0        1.075225    1.260365    0.001411
     15          7           0       -0.233971    1.476336    0.001662
     16          6           0       -2.898071   -1.168201    0.003239
     17          6           0       -4.284410   -1.287914    0.002864
     18          1           0       -5.100943    2.018996   -0.004867
     19          1           0       -2.613061    2.210141   -0.004156
     20          1           0        0.068780   -1.844102   -0.001777
     21          1           0        2.744861   -1.694926   -0.001481
     22          1           0        4.297321    2.350280    0.002148
     23          1           0        1.955788    3.217392    0.003165
     24          1           0       -2.295570   -2.071233    0.005897
     25          1           0       -4.755457   -2.263741    0.004960
 ---------------------------------------------------------------------

 SCF Done:  E(RM062X) =  -3481.51956089     A.U. after    1 cycles

      1  Br   Isotropic =  2080.2813   Anisotropy =  1287.2402

      2  C    Isotropic =    24.0633   Anisotropy =   138.3074

      3  C    Isotropic =    30.6664   Anisotropy =   185.2890

      4  C    Isotropic =    35.3867   Anisotropy =   210.9382

      5  C    Isotropic =    29.8945   Anisotropy =   212.7707

      6  C    Isotropic =    18.8951   Anisotropy =   138.9627

      7  C    Isotropic =    62.7724   Anisotropy =   102.4174

      8  N    Isotropic =    -2.8210   Anisotropy =   262.9680

      9  C    Isotropic =    36.5393   Anisotropy =   131.0831

     10  C    Isotropic =    48.3670   Anisotropy =   122.8974

     11  I    Isotropic =   434.9500   Anisotropy =    73.7272

     12  C    Isotropic =    32.7152   Anisotropy =   175.5442

     13  C    Isotropic =    47.2640   Anisotropy =   178.6804

     14  C    Isotropic =    20.6741   Anisotropy =   136.9724

     15  N    Isotropic =   -36.4959   Anisotropy =   394.2582

     16  C    Isotropic =    38.1030   Anisotropy =   196.5025

     17  C    Isotropic =    31.2525   Anisotropy =   181.4619

     18  H    Isotropic =    23.5536   Anisotropy =    10.6554

     19  H    Isotropic =    22.3030   Anisotropy =    10.4342

     20  H    Isotropic =    23.2057   Anisotropy =     8.8767

     21  H    Isotropic =    22.9464   Anisotropy =    13.9004

     22  H    Isotropic =    23.8610   Anisotropy =    11.7289

     23  H    Isotropic =    23.5476   Anisotropy =     7.8066

     24  H    Isotropic =    23.1006   Anisotropy =    10.1845

     25  H    Isotropic =    23.6117   Anisotropy =    10.6448

 The electronic state is 1-A.
 Alpha  occ. eigenvalues -- -485.37473 -63.35951 -57.17895 -57.17661 -57.17655
 Alpha  occ. eigenvalues --  -14.84670 -14.74335 -10.61958 -10.61389 -10.61026
 Alpha  occ. eigenvalues --  -10.60328 -10.58440 -10.58129 -10.57273 -10.56856
 Alpha  occ. eigenvalues --  -10.56350 -10.55727 -10.55619 -10.55531 -10.55023
 Alpha  occ. eigenvalues --   -9.02596  -7.11622  -6.84998  -6.84132  -6.84110
 Alpha  occ. eigenvalues --   -5.11003  -5.09908  -5.09896  -2.88375  -2.88061
 Alpha  occ. eigenvalues --   -2.88036  -2.87229  -2.87229  -2.07830  -2.07383
 Alpha  occ. eigenvalues --   -2.07367  -2.06460  -2.06459  -1.15907  -1.03018
 Alpha  occ. eigenvalues --   -0.98108  -0.95308  -0.91089  -0.87657  -0.85751
 Alpha  occ. eigenvalues --   -0.85008  -0.82307  -0.78745  -0.73632  -0.71832
 Alpha  occ. eigenvalues --   -0.71398  -0.69239  -0.65902  -0.62379  -0.58436
 Alpha  occ. eigenvalues --   -0.57853  -0.55669  -0.54884  -0.54556  -0.53065
 Alpha  occ. eigenvalues --   -0.52753  -0.50652  -0.49762  -0.47700  -0.47069
 Alpha  occ. eigenvalues --   -0.45056  -0.43985  -0.42260  -0.41576  -0.41311
 Alpha  occ. eigenvalues --   -0.40412  -0.38677  -0.36062  -0.35077  -0.34944
 Alpha  occ. eigenvalues --   -0.33349  -0.32108  -0.31655  -0.27920  -0.26603
 Alpha virt. eigenvalues --   -0.03239  -0.01531  -0.00475   0.01072   0.02477
 Alpha virt. eigenvalues --    0.03789   0.07989   0.09302   0.09731   0.10275
 Alpha virt. eigenvalues --    0.10388   0.11206   0.11941   0.12931   0.14037

 Mulliken charges:
               1
     1  Br  -0.114777
     2  C    0.049116
     3  C   -0.152897
     4  C   -0.221165
     5  C    0.075813
     6  C    0.181204
     7  C   -0.199084
     8  N    0.000856
     9  C   -0.101917
    10  C    0.022640
    11  I   -0.071473
    12  C   -0.150097
    13  C   -0.251747
    14  C    0.208804
    15  N   -0.361092
    16  C   -0.207493
    17  C   -0.183675
    18  H    0.182065
    19  H    0.182342
    20  H    0.197226
    21  H    0.197470
    22  H    0.191505
    23  H    0.182948
    24  H    0.163127
    25  H    0.180301
 Sum of Mulliken charges =  -0.00000

 Dipole moment (field-independent basis, Debye):
    X=              3.5885    Y=             -1.7622    Z=             -0.0016  Tot=              3.9979
 Quadrupole moment (field-independent basis, Debye-Ang):
   XX=           -143.8117   YY=           -118.9892   ZZ=           -137.8714
   XY=              2.2651   XZ=              0.0027   YZ=             -0.0149

 Normal termination of Gaussian 16 at Tue Sep 17 12:37:05 2024.
