 Gaussian 16, Revision C.02,

 ----------------------------------------------------------------------
 #p B3LYP/gen pseudo=read EmpiricalDispersion=GD3BJ opt freq scf(xqc,ti
 ght) integral(grid=ultrafine)
 ----------------------------------------------------------------------

 ----------------------------------
 opt-freq conformers_unique/conf_aa
 ----------------------------------
 Symbolic Z-matrix:
 Charge =  0 Multiplicity = 1

 SCF Done:  E(RB3LYP) =  -259.085250676     A.U. after   14 cycles
 SCF Done:  E(RB3LYP) =  -259.086772929     A.U. after   13 cycles
 SCF Done:  E(RB3LYP) =  -259.086879120     A.U. after   11 cycles
 SCF Done:  E(RB3LYP) =  -259.086891219     A.U. after    9 cycles
 SCF Done:  E(RB3LYP) =  -259.086892791     A.U. after    9 cycles
 Optimization completed.
    -- Stationary point found.
 Normal termination of Gaussian 16 at Tue Sep 17 09:54:42 2024.

 ------------------------------------------------------------------
 #P Geom=AllCheck Guess=TCheck SCRF=Check GenChk RB3LYP/ChkBas Freq
 ------------------------------------------------------------------

 Structure from the checkpoint file:  "smiles_00052_conf_0.chk"
 ----------------------------------
 opt-freq conformers_unique/conf_aa
 ----------------------------------
 Charge =  0 Multiplicity = 1

 SCF Done:  E(RB3LYP) =  -259.086892791     A.U. after    1 cycles

                      1                      2                      3
                      A                      A                      A
 Frequencies --    145.9176               228.6302               246.9866
 Red. masses --      5.1226                 5.7818                11.6112
 Frc consts  --      0.0643                 0.1781                 0.4173
 IR Inten    --      1.4586                 0.9446                 6.2136

                      4                      5                      6
                      A                      A                      A
 Frequencies --    415.3474               470.9152               618.8290
 Red. masses --      3.4021                 3.4409                 7.5418
 Frc consts  --      0.3458                 0.4496                 1.7016
 IR Inten    --      4.5140                 2.2779                 3.4094

                      7                      8                      9
                      A                      A                      A
 Frequencies --    696.7602               745.2680               774.4643
 Red. masses --      7.1517                 5.0944                 1.2213
 Frc consts  --      2.0456                 1.6671                 0.4316
 IR Inten    --     46.6610                 0.0961                39.5592

                     10                     11                     12
                      A                      A                      A
 Frequencies --    903.0337               976.4796               998.5546
 Red. masses --      1.2707                 1.3931                 7.1046
 Frc consts  --      0.6105                 0.7826                 4.1738
 IR Inten    --      0.0537                 0.0712                15.7598

                     13                     14                     15
                      A                      A                      A
 Frequencies --   1010.3564              1065.9548              1096.0768
 Red. masses --      1.3077                 4.0944                 1.9965
 Frc consts  --      0.7865                 2.7411                 1.4132
 IR Inten    --      0.0105                29.9184                85.0793

                     16                     17                     18
                      A                      A                      A
 Frequencies --   1126.7572              1181.0420              1308.9843
 Red. masses --      1.7492                 1.1337                 3.3946
 Frc consts  --      1.3084                 0.9317                 3.4270
 IR Inten    --     26.9489                 3.8188                 8.5879

                     19                     20                     21
                      A                      A                      A
 Frequencies --   1324.7249              1453.4063              1493.7827
 Red. masses --      1.8544                 2.0901                 2.0324
 Frc consts  --      1.9174                 2.6013                 2.6720
 IR Inten    --      3.5424                61.9922                85.6847

                     22                     23                     24
                      A                      A                      A
 Frequencies --   1618.8476              1623.6457              3183.5171
 Red. masses --      5.0343                 6.3731                 1.0893
 Frc consts  --      7.7732                 9.8988                 6.5047
 IR Inten    --     80.1432                64.1529                15.2455

                     25                     26                     27
                      A                      A                      A
 Frequencies --   3198.9031              3220.3383              3236.9841
 Red. masses --      1.0895                 1.0962                 1.0951
 Frc consts  --      6.5687                 6.6978                 6.7607
 IR Inten    --      8.0175                13.2351                 2.1250

 - Thermochemistry -
 -------------------
 Temperature   298.150 Kelvin.  Pressure   1.00000 Atm.
 Atom     1 has atomic number 53 and mass 126.90040

 Molecular mass:   204.93477 amu.
 Principal axes and moments of inertia in atomic units:
                           1         2         3
     Eigenvalues --   306.552122411.420592717.97271
           X            1.00000  -0.00257  -0.00003
           Y            0.00257   1.00000  -0.00004
           Z            0.00003   0.00004   1.00000
 This molecule is an asymmetric top.
 Rotational symmetry number  1.
 Rotational temperatures (Kelvin)      0.28254     0.03592     0.03187
 Rotational constants (GHZ):           5.88722     0.74841     0.66400
 Zero-point vibrational energy     205545.4 (Joules/Mol)
                                   49.12653 (Kcal/Mol)
 Warning -- explicit consideration of   6 degrees of freedom as
           vibrations may cause significant error
 Vibrational temperatures:    209.94   328.95   355.36   597.59   677.54
          (Kelvin)            890.36  1002.48  1072.27  1114.28  1299.26
                             1404.94  1436.70  1453.68  1533.67  1577.01
                             1621.15  1699.26  1883.34  1905.98  2091.13
                             2149.22  2329.16  2336.06  4580.37  4602.51
                             4633.35  4657.30

 Zero-point correction=                           0.078288 (Hartree/Particle)
 Thermal correction to Energy=                    0.084064
 Thermal correction to Enthalpy=                  0.085009
 Thermal correction to Gibbs Free Energy=         0.046561
 Sum of electronic and zero-point Energies=           -259.008605
 Sum of electronic and thermal Energies=              -259.002828
 Sum of electronic and thermal Enthalpies=            -259.001884
 Sum of electronic and thermal Free Energies=         -259.040331

                     E (Thermal)             CV                S
                      KCal/Mol        Cal/Mol-Kelvin    Cal/Mol-Kelvin
 Total                   52.751             20.708             80.919
 Electronic               0.000              0.000              0.000
 Translational            0.889              2.981             41.857
 Rotational               0.889              2.981             29.087
 Vibrational             50.974             14.746              9.975
 Vibration     1          0.617              1.907              2.725
 Vibration     2          0.651              1.797              1.890
 Vibration     3          0.661              1.768              1.752
 Vibration     4          0.779              1.437              0.908
 Vibration     5          0.828              1.315              0.735
 Vibration     6          0.979              0.992              0.418

 Optimization completed.
    -- Stationary point found.
 Normal termination of Gaussian 16 at Tue Sep 17 09:54:59 2024.

 ----------------------------------------------------------------------
 #p M062X/def2tzvp geom=check guess=read scf(xqc,tight) integral(grid=u
 ltrafine) scrf(SMD, solvent=1,4-Dioxane) polar prop=efg volume
 ----------------------------------------------------------------------

 ---
 spe
 ---
 Structure from the checkpoint file:  "smiles_00052_conf_0.chk"
 Charge =  0 Multiplicity = 1

 SCF Done:  E(RM062X) =  -545.299902840     A.U. after   20 cycles

  Exact polarizability:     162.715       2.309     102.723       0.003       0.002      61.728
 Approx polarizability:     166.583       2.989     126.140       0.003       0.002      78.332

 1\1\GINC-HPC-35-07\SP\RM062X\def2TZVP\C5H4I1N1\MANTIND\17-Sep-2024\0\\
 #p M062X/def2tzvp geom=check guess=read scf(xqc,tight) integral(grid=u
 ltrafine) scrf(SMD, solvent=1,4-Dioxane) polar prop=efg volume\\spe\\0
 ,1\I,0,1.3706575057,0.049631196,0.0000946617\C,0,-0.7917283896,0.00907
 54348,0.0000301605\C,0,-1.4723371494,1.2292188924,0.0000668405\C,0,-2.
 8640008199,1.1762274128,0.0000265652\C,0,-3.4991256518,-0.0671338745,-
 0.0000453043\C,0,-2.7072261663,-1.212110091,-0.0000720944\N,0,-1.36486
 6342,-1.1744418952,-0.0000370235\H,0,-0.9363057607,2.1699035665,0.0001

 Normal termination of Gaussian 16 at Tue Sep 17 10:01:11 2024.
 Gaussian 16:  ES64L-G16RevC.02  7-Dec-2021

 ----------------------------------------------------------------------
 #p M062X/def2tzvp geom=check guess=read scf(xqc,tight) integral(grid=u
 ltrafine) scrf(SMD, solvent=1,4-Dioxane) nmr=giao
 ----------------------------------------------------------------------

 ---
 spe
 ---
 Structure from the checkpoint file:  "smiles_00052_conf_0.chk"
 Charge =  0 Multiplicity = 1

                         Standard orientation:
 ---------------------------------------------------------------------
 Center     Atomic      Atomic             Coordinates (Angstroms)
 Number     Number       Type             X           Y           Z
 ---------------------------------------------------------------------
      1         53           0        1.551900   -0.004082    0.000044
      2          6           0       -0.610831   -0.016263   -0.000020
      3          6           0       -1.275373    1.212705    0.000016
      4          6           0       -2.667613    1.177976   -0.000024
      5          6           0       -3.318996   -0.056945   -0.000096
      6          6           0       -2.542186   -1.212212   -0.000123
      7          7           0       -1.199448   -1.192159   -0.000088
      8          1           0       -0.727046    2.146276    0.000072
      9          1           0       -3.233462    2.104725   -0.000001
     10          1           0       -4.401496   -0.123940   -0.000130
     11          1           0       -3.002587   -2.197184   -0.000182
 ---------------------------------------------------------------------

 SCF Done:  E(RM062X) =  -545.299902840     A.U. after    1 cycles

      1  I    Isotropic =   429.8358   Anisotropy =    79.4022

      2  C    Isotropic =    -1.6895   Anisotropy =   103.7219

      3  C    Isotropic =    29.1114   Anisotropy =   173.3295

      4  C    Isotropic =    23.0091   Anisotropy =   234.0031

      5  C    Isotropic =    40.9307   Anisotropy =   210.2364

      6  C    Isotropic =     9.3919   Anisotropy =   198.1904

      7  N    Isotropic =  -152.8740   Anisotropy =   580.8985

      8  H    Isotropic =    23.5767   Anisotropy =    12.6533

      9  H    Isotropic =    23.4629   Anisotropy =     6.4144

     10  H    Isotropic =    23.8746   Anisotropy =     5.7984

     11  H    Isotropic =    22.5126   Anisotropy =     6.9426

 The electronic state is 1-A.
 Alpha  occ. eigenvalues --  -14.76864 -10.63311 -10.59209 -10.57405 -10.56815
 Alpha  occ. eigenvalues --  -10.56146  -7.10087  -5.09411  -5.08407  -5.08380
 Alpha  occ. eigenvalues --   -2.06237  -2.05830  -2.05807  -2.04971  -2.04971
 Alpha  occ. eigenvalues --   -1.07649  -0.91896  -0.87970  -0.78424  -0.73223
 Alpha  occ. eigenvalues --   -0.70277  -0.60394  -0.56695  -0.53996  -0.49683
 Alpha  occ. eigenvalues --   -0.49071  -0.47555  -0.41287  -0.36712  -0.35173
 Alpha  occ. eigenvalues --   -0.33816  -0.31873  -0.30134
 Alpha virt. eigenvalues --   -0.01083  -0.00462  -0.00038   0.08751   0.10943
 Alpha virt. eigenvalues --    0.12119   0.13239   0.13983   0.16065   0.16674
 Alpha virt. eigenvalues --    0.18773   0.20251   0.20753   0.21493   0.23296

 Mulliken charges:
               1
     1  I   -0.112063
     2  C    0.162338
     3  C   -0.203426
     4  C   -0.098527
     5  C   -0.159898
     6  C   -0.045843
     7  N   -0.243431
     8  H    0.186316
     9  H    0.176197
    10  H    0.168921
    11  H    0.169416
 Sum of Mulliken charges =   0.00000

 Dipole moment (field-independent basis, Debye):
    X=             -3.5680    Y=              1.9956    Z=             -0.0000  Tot=              4.0882
 Quadrupole moment (field-independent basis, Debye-Ang):
   XX=            -47.6066   YY=            -58.9205   ZZ=            -64.5157
   XY=             -1.0111   XZ=              0.0005   YZ=              0.0002

 1\1\GINC-HPC-35-07\SP\RM062X\def2TZVP\C5H4I1N1\MANTIND\17-Sep-2024\0\\
 #p M062X/def2tzvp geom=check guess=read scf(xqc,tight) integral(grid=u
 ltrafine) scrf(SMD, solvent=1,4-Dioxane) nmr=giao\\spe\\0,1\I,0,1.3706
 575057,0.049631196,0.0000946617\C,0,-0.7917283896,0.0090754348,0.00003
 01605\C,0,-1.4723371494,1.2292188924,0.0000668405\C,0,-2.8640008199,1.
 1762274128,0.0000265652\C,0,-3.4991256518,-0.0671338745,-0.0000453043\
 C,0,-2.7072261663,-1.212110091,-0.0000720944\N,0,-1.364866342,-1.17444
 18952,-0.0000370235\H,0,-0.9363057607,2.1699035665,0.0001223223\H,0,-3

 Normal termination of Gaussian 16 at Tue Sep 17 10:03:19 2024.
