 Gaussian 16, Revision C.02,

 ----------------------------------------------------------------------
 #p B3LYP/6-31G(d,p) EmpiricalDispersion=GD3BJ opt freq scf(xqc,tight)
 integral(grid=ultrafine)
 ----------------------------------------------------------------------

 ----------------------------------
 opt-freq conformers_unique/conf_aa
 ----------------------------------
 Symbolic Z-matrix:
 Charge =  0 Multiplicity = 1

 SCF Done:  E(RB3LYP) =  -2933.94637876     A.U. after   14 cycles
 SCF Done:  E(RB3LYP) =  -2933.94750817     A.U. after   11 cycles
 SCF Done:  E(RB3LYP) =  -2933.94756427     A.U. after    9 cycles
 SCF Done:  E(RB3LYP) =  -2933.94756938     A.U. after    9 cycles
 SCF Done:  E(RB3LYP) =  -2933.94756984     A.U. after    7 cycles
 Optimization completed.
    -- Stationary point found.
 Normal termination of Gaussian 16 at Tue Sep 17 09:47:23 2024.

 ----------------------------------------------------------------------
 #P Geom=AllCheck Guess=TCheck SCRF=Check GenChk RB3LYP/6-31G(d,p) Freq
 ----------------------------------------------------------------------

 Structure from the checkpoint file:  "smiles_00099_conf_0.chk"
 ----------------------------------
 opt-freq conformers_unique/conf_aa
 ----------------------------------
 Charge =  0 Multiplicity = 1

 SCF Done:  E(RB3LYP) =  -2933.94756984     A.U. after    1 cycles

                      1                      2                      3
                      A                      A                      A
 Frequencies --     78.6892               171.0235               179.4771
 Red. masses --      3.2832                 6.2774                 3.7708
 Frc consts  --      0.0120                 0.1082                 0.0716
 IR Inten    --      2.8824                 0.3015                 0.6603

                      4                      5                      6
                      A                      A                      A
 Frequencies --    211.8939               278.0599               280.5869
 Red. masses --      2.0833                 4.5057                 1.5177
 Frc consts  --      0.0551                 0.2053                 0.0704
 IR Inten    --      1.7044                 4.7528                 0.5816

                      7                      8                      9
                      A                      A                      A
 Frequencies --    312.7317               468.5763               474.4659
 Red. masses --      6.9227                 4.7985                 4.9259
 Frc consts  --      0.3989                 0.6208                 0.6534
 IR Inten    --      1.7647                 0.8207                 0.7644

                     10                     11                     12
                      A                      A                      A
 Frequencies --    572.3523               584.3263               670.7309
 Red. masses --      5.2667                 5.3348                 9.5656
 Frc consts  --      1.0165                 1.0732                 2.5355
 IR Inten    --     13.0808                 2.4446                 1.5326

                     13                     14                     15
                      A                      A                      A
 Frequencies --    715.2039               862.2138               882.2192
 Red. masses --      2.5349                 7.9707                 1.5487
 Frc consts  --      0.7640                 3.4912                 0.7102
 IR Inten    --     10.6936                43.4837                25.1892

                     16                     17                     18
                      A                      A                      A
 Frequencies --    916.9494               935.5324              1025.8082
 Red. masses --      1.3596                 1.4221                 4.6271
 Frc consts  --      0.6735                 0.7333                 2.8687
 IR Inten    --      7.3263                 0.0053                35.0678

                     19                     20                     21
                      A                      A                      A
 Frequencies --   1076.9375              1110.1902              1179.0389
 Red. masses --      7.2736                 1.8084                 1.2720
 Frc consts  --      4.9702                 1.3132                 1.0418
 IR Inten    --    127.5727                17.9909                 0.7656

                     22                     23                     24
                      A                      A                      A
 Frequencies --   1192.1495              1224.6284              1279.5072
 Red. masses --      1.9184                 1.5111                 2.8900
 Frc consts  --      1.6064                 1.3352                 2.7876
 IR Inten    --     14.8145                 8.3629                26.0740

                     25                     26                     27
                      A                      A                      A
 Frequencies --   1324.7360              1347.7198              1465.7194
 Red. masses --      5.0774                 1.5169                 2.1148
 Frc consts  --      5.2499                 1.6233                 2.6768
 IR Inten    --    125.5160                55.6312                84.7469

                     28                     29                     30
                      A                      A                      A
 Frequencies --   1482.0704              1506.0619              1506.9092
 Red. masses --      1.6430                 1.0457                 1.8524
 Frc consts  --      2.1263                 1.3975                 2.4783
 IR Inten    --     36.1892                 6.6512                60.8194

                     31                     32                     33
                      A                      A                      A
 Frequencies --   1519.7974              1603.0968              1636.9239
 Red. masses --      1.0985                 6.2267                 6.0699
 Frc consts  --      1.4949                 9.4281                 9.5827
 IR Inten    --     10.2039                 2.8965               129.8254

                     34                     35                     36
                      A                      A                      A
 Frequencies --   3025.6676              3091.6127              3160.8053
 Red. masses --      1.0343                 1.1066                 1.1009
 Frc consts  --      5.5787                 6.2319                 6.4805
 IR Inten    --     46.2867                34.5686                20.9958

                     37                     38                     39
                      A                      A                      A
 Frequencies --   3197.4839              3204.1884              3232.9669
 Red. masses --      1.0903                 1.0913                 1.0928
 Frc consts  --      6.5675                 6.6013                 6.7298
 IR Inten    --     10.5420                13.0325                 0.5453

 - Thermochemistry -
 -------------------
 Temperature   298.150 Kelvin.  Pressure   1.00000 Atm.
 Atom     1 has atomic number  6 and mass  12.00000

 Molecular mass:   186.96327 amu.
 Principal axes and moments of inertia in atomic units:
                           1         2         3
     Eigenvalues --   589.630693381.196623959.31809
           X            0.99983  -0.01831  -0.00004
           Y            0.01831   0.99983  -0.00007
           Z            0.00004   0.00007   1.00000
 This molecule is an asymmetric top.
 Rotational symmetry number  1.
 Warning -- assumption of classical behavior for rotation
           may cause significant error
 Rotational temperatures (Kelvin)      0.14690     0.02562     0.02188
 Rotational constants (GHZ):           3.06080     0.53376     0.45582
 Zero-point vibrational energy     293019.6 (Joules/Mol)
                                   70.03337 (Kcal/Mol)
 Warning -- explicit consideration of  11 degrees of freedom as
           vibrations may cause significant error
 Vibrational temperatures:    113.22   246.06   258.23   304.87   400.07
          (Kelvin)            403.70   449.95   674.18   682.65   823.49
                              840.72   965.03  1029.02  1240.53  1269.32
                             1319.29  1346.02  1475.91  1549.47  1597.32
                             1696.37  1715.24  1761.97  1840.93  1906.00
                             1939.07  2108.84  2132.37  2166.89  2168.11
                             2186.65  2306.50  2355.17  4353.26  4448.14
                             4547.69  4600.47  4610.11  4651.52

 Zero-point correction=                           0.111605 (Hartree/Particle)
 Thermal correction to Energy=                    0.119739
 Thermal correction to Enthalpy=                  0.120684
 Thermal correction to Gibbs Free Energy=         0.077309
 Sum of electronic and zero-point Energies=          -2933.835965
 Sum of electronic and thermal Energies=             -2933.827830
 Sum of electronic and thermal Enthalpies=           -2933.826886
 Sum of electronic and thermal Free Energies=        -2933.870261

                     E (Thermal)             CV                S
                      KCal/Mol        Cal/Mol-Kelvin    Cal/Mol-Kelvin
 Total                   75.138             29.485             91.289
 Electronic               0.000              0.000              0.000
 Translational            0.889              2.981             41.583
 Rotational               0.889              2.981             30.446
 Vibrational             73.360             23.523             19.260
 Vibration     1          0.600              1.963              3.923
 Vibration     2          0.626              1.878              2.424
 Vibration     3          0.629              1.868              2.334
 Vibration     4          0.643              1.823              2.027
 Vibration     5          0.679              1.714              1.546
 Vibration     6          0.680              1.710              1.530
 Vibration     7          0.701              1.649              1.348
 Vibration     8          0.826              1.320              0.742
 Vibration     9          0.831              1.307              0.725
 Vibration    10          0.929              1.091              0.500
 Vibration    11          0.941              1.065              0.477

 Optimization completed.
    -- Stationary point found.
 Normal termination of Gaussian 16 at Tue Sep 17 09:47:57 2024.

 ----------------------------------------------------------------------
 #p M062X/def2tzvp geom=check guess=read scf(xqc,tight) integral(grid=u
 ltrafine) scrf(SMD, solvent=1,4-Dioxane) polar prop=efg volume
 ----------------------------------------------------------------------

 ---
 spe
 ---
 Structure from the checkpoint file:  "smiles_00099_conf_0.chk"
 Charge =  0 Multiplicity = 1

 SCF Done:  E(RM062X) =  -2936.39260805     A.U. after   12 cycles

  Exact polarizability:     165.960       1.080     111.451       0.004       0.003      67.059
 Approx polarizability:     165.654       2.052     134.180       0.003       0.004      81.866

 Normal termination of Gaussian 16 at Tue Sep 17 10:04:25 2024.
 Gaussian 16:  ES64L-G16RevC.02  7-Dec-2021

 ----------------------------------------------------------------------
 #p M062X/def2tzvp geom=check guess=read scf(xqc,tight) integral(grid=u
 ltrafine) scrf(SMD, solvent=1,4-Dioxane) nmr=giao
 ----------------------------------------------------------------------

 ---
 spe
 ---
 Structure from the checkpoint file:  "smiles_00099_conf_0.chk"
 Charge =  0 Multiplicity = 1

                         Standard orientation:
 ---------------------------------------------------------------------
 Center     Atomic      Atomic             Coordinates (Angstroms)
 Number     Number       Type             X           Y           Z
 ---------------------------------------------------------------------
      1          6           0        4.043853   -0.716355    0.000111
      2          8           0        2.694676   -1.168520    0.000031
      3          6           0        1.712435   -0.231795    0.000053
      4          6           0        1.916545    1.155248    0.000153
      5          7           0        0.906924    2.034404    0.000171
      6          6           0       -0.346064    1.583310    0.000091
      7          6           0       -0.630894    0.214349   -0.000011
      8         35           0       -2.446756   -0.368464   -0.000121
      9          6           0        0.397025   -0.713109   -0.000031
     10          1           0        4.266350   -0.122010    0.894290
     11          1           0        4.660046   -1.615407    0.000077
     12          1           0        4.266418   -0.121894   -0.893973
     13          1           0        2.915929    1.577148    0.000221
     14          1           0       -1.147191    2.315982    0.000106
     15          1           0        0.211624   -1.780148   -0.000109
 ---------------------------------------------------------------------

 SCF Done:  E(RM062X) =  -2936.39260805     A.U. after    1 cycles

      1  C    Isotropic =   128.7117   Anisotropy =    75.5281

      2  O    Isotropic =   231.0416   Anisotropy =    84.5522

      3  C    Isotropic =     7.9826   Anisotropy =   164.4121

      4  C    Isotropic =    33.5206   Anisotropy =   179.0821

      5  N    Isotropic =  -151.2672   Anisotropy =   657.9795

      6  C    Isotropic =    18.5698   Anisotropy =   166.0868

      7  C    Isotropic =    27.3555   Anisotropy =   145.1872

      8  Br   Isotropic =  2128.9606   Anisotropy =  1215.4298

      9  C    Isotropic =    35.9649   Anisotropy =   169.4008

     10  H    Isotropic =    28.0728   Anisotropy =     8.1148

     11  H    Isotropic =    27.7602   Anisotropy =     8.1418

     12  H    Isotropic =    28.0728   Anisotropy =     8.1148

     13  H    Isotropic =    22.8414   Anisotropy =     9.2339

     14  H    Isotropic =    22.7038   Anisotropy =    10.9577

     15  H    Isotropic =    23.7610   Anisotropy =    11.5350

 The electronic state is 1-A.
 Alpha  occ. eigenvalues -- -485.38239 -63.36717 -57.18665 -57.18424 -57.18417
 Alpha  occ. eigenvalues --  -19.67150 -14.76520 -10.62423 -10.61279 -10.59481
 Alpha  occ. eigenvalues --  -10.58399 -10.58302 -10.56968  -9.03362  -6.85780
 Alpha  occ. eigenvalues --   -6.84887  -6.84866  -2.89157  -2.88833  -2.88808
 Alpha  occ. eigenvalues --   -2.87976  -2.87976  -1.20581  -1.06479  -0.94103
 Alpha  occ. eigenvalues --   -0.89418  -0.83537  -0.80759  -0.73199  -0.69353
 Alpha  occ. eigenvalues --   -0.61944  -0.59647  -0.58309  -0.56085  -0.50838
 Alpha  occ. eigenvalues --   -0.50070  -0.49083  -0.48685  -0.44543  -0.43269
 Alpha  occ. eigenvalues --   -0.42334  -0.39909  -0.36155  -0.33549  -0.32595
 Alpha  occ. eigenvalues --   -0.29614
 Alpha virt. eigenvalues --   -0.01048   0.01520   0.03185   0.07594   0.10382
 Alpha virt. eigenvalues --    0.11109   0.12627   0.13342   0.14841   0.14894
 Alpha virt. eigenvalues --    0.15492   0.16836   0.17252   0.21384   0.22656

 Mulliken charges:
               1
     1  C   -0.311927
     2  O   -0.279137
     3  C    0.261022
     4  C   -0.140814
     5  N   -0.232407
     6  C   -0.097325
     7  C    0.061395
     8  Br  -0.092744
     9  C   -0.215804
    10  H    0.165310
    11  H    0.166386
    12  H    0.165310
    13  H    0.179002
    14  H    0.176481
    15  H    0.195251
 Sum of Mulliken charges =  -0.00000

 Dipole moment (field-independent basis, Debye):
    X=              2.9365    Y=             -1.2633    Z=              0.0000  Tot=              3.1967
 Quadrupole moment (field-independent basis, Debye-Ang):
   XX=            -50.5889   YY=            -69.5522   ZZ=            -67.0464
   XY=             -2.2836   XZ=              0.0005   YZ=             -0.0003

 Normal termination of Gaussian 16 at Tue Sep 17 10:10:14 2024.
