 Gaussian 16, Revision C.02,

 ----------------------------------------------------------------------
 #p B3LYP/6-31G(d,p) EmpiricalDispersion=GD3BJ opt freq scf(xqc,tight)
 integral(grid=ultrafine)
 ----------------------------------------------------------------------

 ----------------------------------
 opt-freq conformers_unique/conf_ab
 ----------------------------------
 Symbolic Z-matrix:
 Charge =  0 Multiplicity = 1

 SCF Done:  E(RB3LYP) =  -2933.94671490     A.U. after   14 cycles
 SCF Done:  E(RB3LYP) =  -2933.94778757     A.U. after   12 cycles
 SCF Done:  E(RB3LYP) =  -2933.94784578     A.U. after    9 cycles
 SCF Done:  E(RB3LYP) =  -2933.94785028     A.U. after    9 cycles
 SCF Done:  E(RB3LYP) =  -2933.94785058     A.U. after    7 cycles
 Optimization completed.
    -- Stationary point found.
 Normal termination of Gaussian 16 at Tue Sep 17 09:47:33 2024.

 ----------------------------------------------------------------------
 #P Geom=AllCheck Guess=TCheck SCRF=Check GenChk RB3LYP/6-31G(d,p) Freq
 ----------------------------------------------------------------------

 Structure from the checkpoint file:  "smiles_00099_conf_1.chk"
 ----------------------------------
 opt-freq conformers_unique/conf_ab
 ----------------------------------
 Charge =  0 Multiplicity = 1

 SCF Done:  E(RB3LYP) =  -2933.94785058     A.U. after    1 cycles

                      1                      2                      3
                      A                      A                      A
 Frequencies --     94.5876               152.4406               162.5731
 Red. masses --      3.3249                 5.0383                 3.8008
 Frc consts  --      0.0175                 0.0690                 0.0592
 IR Inten    --      2.2829                 1.5240                 0.4867

                      4                      5                      6
                      A                      A                      A
 Frequencies --    218.0518               276.1771               303.1307
 Red. masses --      1.9867                 1.5859                 7.5875
 Frc consts  --      0.0557                 0.0713                 0.4108
 IR Inten    --      0.5022                 0.9677                 1.8572

                      7                      8                      9
                      A                      A                      A
 Frequencies --    321.2648               454.7561               472.1967
 Red. masses --      4.9707                 5.0040                 4.6927
 Frc consts  --      0.3023                 0.6097                 0.6165
 IR Inten    --      1.0630                 0.3378                 1.2757

                     10                     11                     12
                      A                      A                      A
 Frequencies --    576.4836               577.7100               669.0735
 Red. masses --      5.3579                 5.2632                 8.8471
 Frc consts  --      1.0491                 1.0350                 2.3335
 IR Inten    --     10.5815                 2.4543                 3.7422

                     13                     14                     15
                      A                      A                      A
 Frequencies --    715.8000               873.2341               887.3487
 Red. masses --      2.4940                 7.8560                 1.6443
 Frc consts  --      0.7529                 3.5295                 0.7628
 IR Inten    --     10.4669                84.3875                32.7631

                     16                     17                     18
                      A                      A                      A
 Frequencies --    904.2564               943.8190              1026.4741
 Red. masses --      1.3007                 1.4384                 4.5998
 Frc consts  --      0.6266                 0.7549                 2.8555
 IR Inten    --      0.0305                 0.1550                28.0154

                     19                     20                     21
                      A                      A                      A
 Frequencies --   1072.5656              1125.9490              1179.0457
 Red. masses --      7.6621                 2.0274                 1.2729
 Frc consts  --      5.1934                 1.5143                 1.0425
 IR Inten    --     44.9547                16.6467                 0.6625

                     22                     23                     24
                      A                      A                      A
 Frequencies --   1195.6601              1213.4642              1283.8339
 Red. masses --      1.8266                 1.4014                 4.5298
 Frc consts  --      1.5385                 1.2159                 4.3989
 IR Inten    --     23.2255                 6.2746                97.0975

                     25                     26                     27
                      A                      A                      A
 Frequencies --   1311.3628              1358.9496              1465.3660
 Red. masses --      2.0881                 1.8190                 1.8067
 Frc consts  --      2.1156                 1.9792                 2.2858
 IR Inten    --     45.3325                64.9583                98.1487

                     28                     29                     30
                      A                      A                      A
 Frequencies --   1475.4610              1504.7762              1506.3608
 Red. masses --      2.5278                 1.7041                 1.0455
 Frc consts  --      3.2422                 2.2735                 1.3978
 IR Inten    --     44.4102                28.4442                 6.8071

                     31                     32                     33
                      A                      A                      A
 Frequencies --   1518.8723              1604.8952              1636.7518
 Red. masses --      1.0654                 6.5548                 5.8920
 Frc consts  --      1.4482                 9.9472                 9.2999
 IR Inten    --     17.4120                41.3160                99.1647

                     34                     35                     36
                      A                      A                      A
 Frequencies --   3022.2544              3087.0180              3162.3387
 Red. masses --      1.0347                 1.1065                 1.1004
 Frc consts  --      5.5685                 6.2127                 6.4836
 IR Inten    --     40.9263                35.4237                19.3107

                     37                     38                     39
                      A                      A                      A
 Frequencies --   3186.4246              3202.1502              3244.6968
 Red. masses --      1.0904                 1.0925                 1.0915
 Frc consts  --      6.5232                 6.6004                 6.7705
 IR Inten    --     13.5994                 3.2559                 1.7168

 - Thermochemistry -
 -------------------
 Temperature   298.150 Kelvin.  Pressure   1.00000 Atm.
 Atom     1 has atomic number  6 and mass  12.00000

 Molecular mass:   186.96327 amu.
 Principal axes and moments of inertia in atomic units:
                           1         2         3
     Eigenvalues --   846.745742867.045293702.27509
           X            0.99874  -0.05022  -0.00001
           Y            0.05022   0.99874   0.00009
           Z            0.00001  -0.00009   1.00000
 This molecule is an asymmetric top.
 Rotational symmetry number  1.
 Warning -- assumption of classical behavior for rotation
           may cause significant error
 Rotational temperatures (Kelvin)      0.10229     0.03021     0.02339
 Rotational constants (GHZ):           2.13139     0.62948     0.48747
 Zero-point vibrational energy     293010.8 (Joules/Mol)
                                   70.03125 (Kcal/Mol)
 Warning -- explicit consideration of  11 degrees of freedom as
           vibrations may cause significant error
 Vibrational temperatures:    136.09   219.33   233.91   313.73   397.36
          (Kelvin)            436.14   462.23   654.29   679.39   829.43
                              831.20   962.65  1029.88  1256.39  1276.70
                             1301.02  1357.95  1476.87  1543.18  1619.99
                             1696.38  1720.29  1745.90  1847.15  1886.76
                             1955.23  2108.33  2122.86  2165.04  2167.32
                             2185.32  2309.09  2354.92  4348.35  4441.53
                             4549.90  4584.55  4607.18  4668.39

 Zero-point correction=                           0.111602 (Hartree/Particle)
 Thermal correction to Energy=                    0.119731
 Thermal correction to Enthalpy=                  0.120675
 Thermal correction to Gibbs Free Energy=         0.077300
 Sum of electronic and zero-point Energies=          -2933.836249
 Sum of electronic and thermal Energies=             -2933.828120
 Sum of electronic and thermal Enthalpies=           -2933.827176
 Sum of electronic and thermal Free Energies=        -2933.870550

                     E (Thermal)             CV                S
                      KCal/Mol        Cal/Mol-Kelvin    Cal/Mol-Kelvin
 Total                   75.132             29.476             91.290
 Electronic               0.000              0.000              0.000
 Translational            0.889              2.981             41.583
 Rotational               0.889              2.981             30.575
 Vibrational             73.355             23.515             19.131
 Vibration     1          0.603              1.953              3.563
 Vibration     2          0.619              1.900              2.642
 Vibration     3          0.623              1.888              2.520
 Vibration     4          0.646              1.814              1.975
 Vibration     5          0.678              1.717              1.557
 Vibration     6          0.695              1.668              1.400
 Vibration     7          0.707              1.633              1.304
 Vibration     8          0.813              1.350              0.782
 Vibration     9          0.829              1.312              0.731
 Vibration    10          0.933              1.082              0.492
 Vibration    11          0.934              1.079              0.490

 Optimization completed.
    -- Stationary point found.
 Normal termination of Gaussian 16 at Tue Sep 17 09:48:16 2024.

 ----------------------------------------------------------------------
 #p M062X/def2tzvp geom=check guess=read scf(xqc,tight) integral(grid=u
 ltrafine) scrf(SMD, solvent=1,4-Dioxane) polar prop=efg volume
 ----------------------------------------------------------------------

 ---
 spe
 ---
 Structure from the checkpoint file:  "smiles_00099_conf_1.chk"
 Charge =  0 Multiplicity = 1

 SCF Done:  E(RM062X) =  -2936.39290512     A.U. after   12 cycles

  Exact polarizability:     153.711       2.070     122.266       0.001      -0.005      66.837
 Approx polarizability:     163.003       5.713     137.521      -0.000      -0.004      81.864

 Normal termination of Gaussian 16 at Tue Sep 17 10:07:58 2024.
 Gaussian 16:  ES64L-G16RevC.02  7-Dec-2021

 ----------------------------------------------------------------------
 #p M062X/def2tzvp geom=check guess=read scf(xqc,tight) integral(grid=u
 ltrafine) scrf(SMD, solvent=1,4-Dioxane) nmr=giao
 ----------------------------------------------------------------------

 ---
 spe
 ---
 Structure from the checkpoint file:  "smiles_00099_conf_1.chk"
 Charge =  0 Multiplicity = 1

                         Standard orientation:
 ---------------------------------------------------------------------
 Center     Atomic      Atomic             Coordinates (Angstroms)
 Number     Number       Type             X           Y           Z
 ---------------------------------------------------------------------
      1          6           0        3.059009   -1.871524    0.000275
      2          8           0        3.044216   -0.449897    0.000028
      3          6           0        1.837982    0.170837   -0.000017
      4          6           0        1.858381    1.576849   -0.000124
      5          7           0        0.757043    2.321150   -0.000186
      6          6           0       -0.435316    1.709643   -0.000143
      7          6           0       -0.539457    0.323148   -0.000040
      8         35           0       -2.262817   -0.496896    0.000013
      9          6           0        0.601075   -0.477536    0.000025
     10          1           0        4.109703   -2.160975    0.000378
     11          1           0        2.569847   -2.276301    0.894713
     12          1           0        2.569940   -2.276613   -0.894073
     13          1           0        2.817756    2.087747   -0.000158
     14          1           0       -1.322121    2.335269   -0.000191
     15          1           0        0.510399   -1.555131    0.000101
 ---------------------------------------------------------------------

 SCF Done:  E(RM062X) =  -2936.39290512     A.U. after    1 cycles

      1  C    Isotropic =   129.4972   Anisotropy =    73.7161

      2  O    Isotropic =   230.7564   Anisotropy =    97.6893

      3  C    Isotropic =     7.5960   Anisotropy =   162.7086

      4  C    Isotropic =    22.9954   Anisotropy =   175.0443

      5  N    Isotropic =  -152.0882   Anisotropy =   651.9891

      6  C    Isotropic =    20.2345   Anisotropy =   164.5879

      7  C    Isotropic =    27.4654   Anisotropy =   142.9458

      8  Br   Isotropic =  2125.3845   Anisotropy =  1222.8619

      9  C    Isotropic =    45.9843   Anisotropy =   174.0790

     10  H    Isotropic =    27.7348   Anisotropy =     8.1397

     11  H    Isotropic =    28.2476   Anisotropy =     7.5201

     12  H    Isotropic =    28.2474   Anisotropy =     7.5204

     13  H    Isotropic =    22.7164   Anisotropy =     8.0343

     14  H    Isotropic =    22.7849   Anisotropy =    11.0794

     15  H    Isotropic =    24.0005   Anisotropy =    13.3566

 The electronic state is 1-A.
 Alpha  occ. eigenvalues -- -485.38338 -63.36814 -57.18762 -57.18521 -57.18515
 Alpha  occ. eigenvalues --  -19.67268 -14.76459 -10.62473 -10.61352 -10.59634
 Alpha  occ. eigenvalues --  -10.58271 -10.58193 -10.57218  -9.03457  -6.85874
 Alpha  occ. eigenvalues --   -6.84982  -6.84963  -2.89250  -2.88927  -2.88904
 Alpha  occ. eigenvalues --   -2.88074  -2.88073  -1.20729  -1.06481  -0.94090
 Alpha  occ. eigenvalues --   -0.89367  -0.84277  -0.80543  -0.72276  -0.70095
 Alpha  occ. eigenvalues --   -0.61988  -0.59726  -0.58409  -0.56219  -0.50942
 Alpha  occ. eigenvalues --   -0.49492  -0.49249  -0.49125  -0.45677  -0.42416
 Alpha  occ. eigenvalues --   -0.42183  -0.39798  -0.36232  -0.33684  -0.33147
 Alpha  occ. eigenvalues --   -0.29303
 Alpha virt. eigenvalues --   -0.00876   0.01313   0.03008   0.07469   0.10393
 Alpha virt. eigenvalues --    0.11284   0.12557   0.13311   0.14155   0.14724
 Alpha virt. eigenvalues --    0.15545   0.16695   0.17819   0.21593   0.21935

 Mulliken charges:
               1
     1  C   -0.310339
     2  O   -0.278354
     3  C    0.247658
     4  C   -0.102381
     5  N   -0.235166
     6  C   -0.088688
     7  C    0.021279
     8  Br  -0.096496
     9  C   -0.204361
    10  H    0.169644
    11  H    0.163939
    12  H    0.163938
    13  H    0.172575
    14  H    0.176695
    15  H    0.200058
 Sum of Mulliken charges =   0.00000

 Dipole moment (field-independent basis, Debye):
    X=              1.5935    Y=             -3.3894    Z=              0.0004  Tot=              3.7453
 Quadrupole moment (field-independent basis, Debye-Ang):
   XX=            -61.4132   YY=            -64.8935   ZZ=            -67.0460
   XY=             -7.4382   XZ=              0.0012   YZ=             -0.0005

 Normal termination of Gaussian 16 at Tue Sep 17 10:14:07 2024.
