 Gaussian 16, Revision C.02,

 ----------------------------------------------------------------------
 #p B3LYP/6-31G(d,p) EmpiricalDispersion=GD3BJ opt freq scf(xqc,tight)
 integral(grid=ultrafine)
 ----------------------------------------------------------------------

 ----------------------------------
 opt-freq conformers_unique/conf_aa
 ----------------------------------
 Symbolic Z-matrix:
 Charge =  0 Multiplicity = 1

 SCF Done:  E(RB3LYP) =  -3140.42310032     A.U. after   15 cycles
 SCF Done:  E(RB3LYP) =  -3140.42406252     A.U. after   12 cycles
 SCF Done:  E(RB3LYP) =  -3140.42421133     A.U. after   11 cycles
 SCF Done:  E(RB3LYP) =  -3140.42422608     A.U. after    9 cycles
 SCF Done:  E(RB3LYP) =  -3140.42422658     A.U. after    7 cycles
 Optimization completed.
    -- Stationary point found.
 Normal termination of Gaussian 16 at Tue Sep 17 09:47:23 2024.

 ----------------------------------------------------------------------
 #P Geom=AllCheck Guess=TCheck SCRF=Check GenChk RB3LYP/6-31G(d,p) Freq
 ----------------------------------------------------------------------

 Structure from the checkpoint file:  "smiles_00117_conf_0.chk"
 ----------------------------------
 opt-freq conformers_unique/conf_aa
 ----------------------------------
 Charge =  0 Multiplicity = 1

 SCF Done:  E(RB3LYP) =  -3140.42422658     A.U. after    1 cycles

                      1                      2                      3
                      A                      A                      A
 Frequencies --     66.3956               112.5181               143.1967
 Red. masses --     16.8669                 4.8951                25.0253
 Frc consts  --      0.0438                 0.0365                 0.3023
 IR Inten    --      0.0009                 0.0108                 0.3179

                      4                      5                      6
                      A                      A                      A
 Frequencies --    176.7462               268.2963               269.5030
 Red. masses --      7.0394                 7.6435                16.5368
 Frc consts  --      0.1296                 0.3242                 0.7077
 IR Inten    --      0.2319                 0.0990                 1.1549

                      7                      8                      9
                      A                      A                      A
 Frequencies --    342.4823               391.0913               427.2582
 Red. masses --      5.8911                 9.4874                 9.3651
 Frc consts  --      0.4071                 0.8550                 1.0073
 IR Inten    --      0.0719                 6.7705                 2.4964

                     10                     11                     12
                      A                      A                      A
 Frequencies --    459.5597               508.2953               577.5146
 Red. masses --      3.9668                 6.4982                12.3001
 Frc consts  --      0.4936                 0.9892                 2.4171
 IR Inten    --      1.3863                 2.5186                 0.4197

                     13                     14                     15
                      A                      A                      A
 Frequencies --    602.3203               654.7976               692.3974
 Red. masses --      5.2820                 7.4308                 8.4258
 Frc consts  --      1.1290                 1.8772                 2.3800
 IR Inten    --      2.5345                13.9612                13.5962

                     16                     17                     18
                      A                      A                      A
 Frequencies --    752.4113               782.1358               784.5489
 Red. masses --      3.3817                 1.3493                 9.5269
 Frc consts  --      1.1280                 0.4863                 3.4549
 IR Inten    --      5.7914                43.1986                 3.0144

                     19                     20                     21
                      A                      A                      A
 Frequencies --    899.3386               975.7890              1009.3559
 Red. masses --      1.3728                 1.3614                 1.3159
 Frc consts  --      0.6542                 0.7637                 0.7899
 IR Inten    --      0.2391                 3.4228                 0.0133

                     22                     23                     24
                      A                      A                      A
 Frequencies --   1037.2352              1067.4833              1117.8578
 Red. masses --      8.0767                 3.2126                 2.8013
 Frc consts  --      5.1196                 2.1569                 2.0624
 IR Inten    --     42.8689                20.8413                58.6890

                     25                     26                     27
                      A                      A                      A
 Frequencies --   1142.1240              1193.8752              1198.6602
 Red. masses --      1.9629                 1.1127                12.8284
 Frc consts  --      1.5086                 0.9345                10.8596
 IR Inten    --     29.8215                 3.0364               237.0087

                     28                     29                     30
                      A                      A                      A
 Frequencies --   1215.9873              1292.3310              1336.9344
 Red. masses --      3.6950                 1.6967                 3.5159
 Frc consts  --      3.2190                 1.6696                 3.7026
 IR Inten    --    141.0029                47.9060               223.6748

                     31                     32                     33
                      A                      A                      A
 Frequencies --   1352.0103              1482.7905              1517.7614
 Red. masses --      8.4440                 2.2607                 2.6346
 Frc consts  --      9.0941                 2.9286                 3.5758
 IR Inten    --     30.9429                43.3588                15.4098

                     34                     35                     36
                      A                      A                      A
 Frequencies --   1631.6001              1653.5914              3197.0603
 Red. masses --      6.0781                 6.2179                 1.0870
 Frc consts  --      9.5334                10.0172                 6.5463
 IR Inten    --     15.1551                25.2265                 2.9156

                     37                     38                     39
                      A                      A                      A
 Frequencies --   3212.6119              3226.1706              3235.8972
 Red. masses --      1.0925                 1.0946                 1.0936
 Frc consts  --      6.6432                 6.7123                 6.7465
 IR Inten    --      9.5840                 2.7619                 2.6235

 - Thermochemistry -
 -------------------
 Temperature   298.150 Kelvin.  Pressure   1.00000 Atm.
 Atom     1 has atomic number  9 and mass  18.99840

 Molecular mass:   223.94485 amu.
 Principal axes and moments of inertia in atomic units:
                           1         2         3
     Eigenvalues --  1930.243482181.048033790.37247
           X            0.93325   0.35922   0.00006
           Y           -0.35922   0.93325  -0.00000
           Z           -0.00006  -0.00002   1.00000
 This molecule is an asymmetric top.
 Rotational symmetry number  1.
 Warning -- assumption of classical behavior for rotation
           may cause significant error
 Rotational temperatures (Kelvin)      0.04487     0.03971     0.02285
 Rotational constants (GHZ):           0.93498     0.82747     0.47614
 Zero-point vibrational energy     251263.2 (Joules/Mol)
                                   60.05336 (Kcal/Mol)
 Warning -- explicit consideration of  13 degrees of freedom as
           vibrations may cause significant error
 Vibrational temperatures:     95.53   161.89   206.03   254.30   386.02
          (Kelvin)            387.75   492.76   562.69   614.73   661.20
                              731.32   830.91   866.60   942.11   996.21
                             1082.55  1125.32  1128.79  1293.95  1403.94
                             1452.24  1492.35  1535.87  1608.35  1643.26
                             1717.72  1724.60  1749.53  1859.38  1923.55
                             1945.24  2133.40  2183.72  2347.51  2379.15
                             4599.86  4622.23  4641.74  4655.73

 Zero-point correction=                           0.095701 (Hartree/Particle)
 Thermal correction to Energy=                    0.104835
 Thermal correction to Enthalpy=                  0.105779
 Thermal correction to Gibbs Free Energy=         0.059841
 Sum of electronic and zero-point Energies=          -3140.328525
 Sum of electronic and thermal Energies=             -3140.319392
 Sum of electronic and thermal Enthalpies=           -3140.318448
 Sum of electronic and thermal Free Energies=        -3140.364386

                     E (Thermal)             CV                S
                      KCal/Mol        Cal/Mol-Kelvin    Cal/Mol-Kelvin
 Total                   65.785             33.821             96.684
 Electronic               0.000              0.000              0.000
 Translational            0.889              2.981             42.121
 Rotational               0.889              2.981             31.146
 Vibrational             64.007             27.859             23.417
 Vibration     1          0.598              1.970              4.257
 Vibration     2          0.607              1.939              3.225
 Vibration     3          0.616              1.910              2.761
 Vibration     4          0.628              1.871              2.363
 Vibration     5          0.673              1.731              1.607
 Vibration     6          0.674              1.729              1.599
 Vibration     7          0.722              1.591              1.201
 Vibration     8          0.759              1.489              0.996
 Vibration     9          0.789              1.411              0.868
 Vibration    10          0.817              1.340              0.767
 Vibration    11          0.863              1.232              0.638
 Vibration    12          0.934              1.080              0.490
 Vibration    13          0.961              1.027              0.446

 Optimization completed.
    -- Stationary point found.
 Normal termination of Gaussian 16 at Tue Sep 17 09:48:29 2024.

 ----------------------------------------------------------------------
 #p M062X/def2tzvp geom=check guess=read scf(xqc,tight) integral(grid=u
 ltrafine) scrf(SMD, solvent=1,4-Dioxane) polar prop=efg volume
 ----------------------------------------------------------------------

 ---
 spe
 ---
 Structure from the checkpoint file:  "smiles_00117_conf_0.chk"
 Charge =  0 Multiplicity = 1

 SCF Done:  E(RM062X) =  -3142.91437287     A.U. after   12 cycles

  Exact polarizability:     149.239       5.924     122.990      -0.004      -0.000      67.936
 Approx polarizability:     161.890       3.302     136.783      -0.004      -0.000      84.760

 Normal termination of Gaussian 16 at Tue Sep 17 10:28:35 2024.
 Gaussian 16:  ES64L-G16RevC.02  7-Dec-2021

 ----------------------------------------------------------------------
 #p M062X/def2tzvp geom=check guess=read scf(xqc,tight) integral(grid=u
 ltrafine) scrf(SMD, solvent=1,4-Dioxane) nmr=giao
 ----------------------------------------------------------------------

 ---
 spe
 ---
 Structure from the checkpoint file:  "smiles_00117_conf_0.chk"
 Charge =  0 Multiplicity = 1

                         Standard orientation:
 ---------------------------------------------------------------------
 Center     Atomic      Atomic             Coordinates (Angstroms)
 Number     Number       Type             X           Y           Z
 ---------------------------------------------------------------------
      1          9           0        0.397592    1.920889    1.087560
      2          6           0       -0.358260    1.662814    0.000036
      3          9           0        0.397861    1.920670   -1.087345
      4          9           0       -1.372045    2.556678   -0.000163
      5          6           0       -0.874289    0.244566    0.000098
      6          6           0       -2.252592    0.015885    0.000102
      7          6           0       -2.761165   -1.280574    0.000132
      8          6           0       -1.887401   -2.366025    0.000122
      9          6           0       -0.509458   -2.155955    0.000076
     10          6           0       -0.008423   -0.856467    0.000075
     11         35           0        1.884175   -0.635018   -0.000135
     12          1           0       -2.921580    0.867264    0.000098
     13          1           0       -3.834086   -1.439291    0.000158
     14          1           0       -2.272133   -3.380795    0.000125
     15          1           0        0.180510   -2.991144    0.000027
 ---------------------------------------------------------------------

 SCF Done:  E(RM062X) =  -3142.91437287     A.U. after    1 cycles

      1  F    Isotropic =   237.4989   Anisotropy =   141.0282

      2  C    Isotropic =    50.9984   Anisotropy =    15.9203

      3  F    Isotropic =   237.4995   Anisotropy =   141.0062

      4  F    Isotropic =   252.8370   Anisotropy =   131.2648

      5  C    Isotropic =    31.2868   Anisotropy =   175.0491

      6  C    Isotropic =    35.1285   Anisotropy =   216.7616

      7  C    Isotropic =    36.2969   Anisotropy =   221.3189

      8  C    Isotropic =    28.4065   Anisotropy =   219.3111

      9  C    Isotropic =    27.8081   Anisotropy =   186.9372

     10  C    Isotropic =    25.4426   Anisotropy =   158.8262

     11  Br   Isotropic =  2065.0412   Anisotropy =  1167.1312

     12  H    Isotropic =    23.1997   Anisotropy =    10.1288

     13  H    Isotropic =    23.6193   Anisotropy =     5.6680

     14  H    Isotropic =    23.4258   Anisotropy =     6.0899

     15  H    Isotropic =    23.3718   Anisotropy =    11.1686

 The electronic state is 1-A.
 Alpha  occ. eigenvalues -- -485.38430 -63.36904 -57.18857 -57.18612 -57.18599
 Alpha  occ. eigenvalues --  -25.28537 -25.28152 -25.28152 -10.80701 -10.62387
 Alpha  occ. eigenvalues --  -10.58940 -10.57179 -10.56935 -10.56790 -10.56351
 Alpha  occ. eigenvalues --   -9.03546  -6.85981  -6.85071  -6.85032  -2.89357
 Alpha  occ. eigenvalues --   -2.89034  -2.88992  -2.88144  -2.88144  -1.46524
 Alpha  occ. eigenvalues --   -1.37640  -1.37415  -1.00208  -0.91377  -0.89927
 Alpha  occ. eigenvalues --   -0.83792  -0.80779  -0.73186  -0.71598  -0.69343
 Alpha  occ. eigenvalues --   -0.68513  -0.65780  -0.58658  -0.57867  -0.57865
 Alpha  occ. eigenvalues --   -0.55474  -0.54032  -0.53860  -0.52652  -0.51856
 Alpha  occ. eigenvalues --   -0.49740  -0.48724  -0.47576  -0.43626  -0.42349
 Alpha  occ. eigenvalues --   -0.38979  -0.35788  -0.33849  -0.31174
 Alpha virt. eigenvalues --   -0.01478  -0.00365   0.02866   0.09096   0.10771
 Alpha virt. eigenvalues --    0.12185   0.13259   0.14215   0.14801   0.16640
 Alpha virt. eigenvalues --    0.18202   0.19624   0.19747   0.21332   0.22831

 Mulliken charges:
               1
     1  F   -0.176863
     2  C    0.528074
     3  F   -0.176857
     4  F   -0.184958
     5  C   -0.007843
     6  C   -0.149018
     7  C   -0.153101
     8  C   -0.144842
     9  C   -0.149977
    10  C   -0.028896
    11  Br  -0.071531
    12  H    0.187657
    13  H    0.172512
    14  H    0.173679
    15  H    0.181964
 Sum of Mulliken charges =  -0.00000

 Dipole moment (field-independent basis, Debye):
    X=             -2.8429    Y=             -3.1431    Z=             -0.0000  Tot=              4.2381
 Quadrupole moment (field-independent basis, Debye-Ang):
   XX=            -65.3191   YY=            -70.1871   ZZ=            -77.5513
   XY=              3.0628   XZ=             -0.0007   YZ=             -0.0003

 Normal termination of Gaussian 16 at Tue Sep 17 10:43:24 2024.
