 Gaussian 16, Revision C.02,

 ----------------------------------------------------------------------
 #p B3LYP/6-31G(d,p) EmpiricalDispersion=GD3BJ opt freq scf(xqc,tight)
 integral(grid=ultrafine)
 ----------------------------------------------------------------------

 ----------------------------------
 opt-freq conformers_unique/conf_aa
 ----------------------------------
 Symbolic Z-matrix:
 Charge =  0 Multiplicity = 1

 SCF Done:  E(RB3LYP) =  -1182.33033772     A.U. after   15 cycles
 SCF Done:  E(RB3LYP) =  -1182.33240035     A.U. after   12 cycles
 SCF Done:  E(RB3LYP) =  -1182.33256114     A.U. after   10 cycles
 SCF Done:  E(RB3LYP) =  -1182.33258779     A.U. after   10 cycles
 SCF Done:  E(RB3LYP) =  -1182.33258846     A.U. after    8 cycles
 Optimization completed.
    -- Stationary point found.
 Normal termination of Gaussian 16 at Tue Sep 17 09:54:37 2024.

 ----------------------------------------------------------------------
 #P Geom=AllCheck Guess=TCheck SCRF=Check GenChk RB3LYP/6-31G(d,p) Freq
 ----------------------------------------------------------------------

 Structure from the checkpoint file:  "smiles_00046_conf_0.chk"
 ----------------------------------
 opt-freq conformers_unique/conf_aa
 ----------------------------------
 Charge =  0 Multiplicity = 1

 SCF Done:  E(RB3LYP) =  -1182.33258846     A.U. after    1 cycles

                      1                      2                      3
                      A                      A                      A
 Frequencies --    108.0226               194.8225               209.4944
 Red. masses --      8.1161                 5.8514                10.4895
 Frc consts  --      0.0558                 0.1309                 0.2712
 IR Inten    --      0.4145                 1.2450                 0.4161

                      4                      5                      6
                      A                      A                      A
 Frequencies --    299.9247               376.3772               395.3971
 Red. masses --      6.9468                16.7257                 9.0189
 Frc consts  --      0.3682                 1.3960                 0.8308
 IR Inten    --      0.0075                 6.8986                 1.2096

                      7                      8                      9
                      A                      A                      A
 Frequencies --    434.5565               512.3038               520.4894
 Red. masses --      3.2744                 8.5296                 6.3675
 Frc consts  --      0.3643                 1.3190                 1.0164
 IR Inten    --      3.4922                 0.4420                 0.0250

                     10                     11                     12
                      A                      A                      A
 Frequencies --    594.7922               607.7379               671.6013
 Red. masses --      5.3003                 8.9843                11.8065
 Frc consts  --      1.1048                 1.9551                 3.1376
 IR Inten    --      0.0011                 5.5454                 6.8510

                     13                     14                     15
                      A                      A                      A
 Frequencies --    717.2032               737.5033               771.6509
 Red. masses --      7.0509                 2.8777                 1.5401
 Frc consts  --      2.1369                 0.9222                 0.5403
 IR Inten    --      5.3461                 9.1613                43.3469

                     16                     17                     18
                      A                      A                      A
 Frequencies --    870.8173               870.8290               949.9909
 Red. masses --      1.4244                 5.4272                 1.3539
 Frc consts  --      0.6364                 2.4249                 0.7199
 IR Inten    --      0.7087                 2.6277                 1.5654

                     19                     20                     21
                      A                      A                      A
 Frequencies --    990.4579              1008.4310              1047.9671
 Red. masses --      1.2678                10.5656                 2.0486
 Frc consts  --      0.7328                 6.3305                 1.3256
 IR Inten    --      0.0051               186.5610                 1.8920

                     22                     23                     24
                      A                      A                      A
 Frequencies --   1093.1889              1151.3765              1190.9542
 Red. masses --      5.6079                 1.4558                 1.1712
 Frc consts  --      3.9486                 1.1371                 0.9787
 IR Inten    --     21.6353                 1.9585                 0.1029

                     25                     26                     27
                      A                      A                      A
 Frequencies --   1269.1975              1310.7402              1363.7636
 Red. masses --      2.7379                 1.9103                 6.5104
 Frc consts  --      2.5985                 1.9336                 7.1341
 IR Inten    --      9.6870                 1.4123                12.2304

                     28                     29                     30
                      A                      A                      A
 Frequencies --   1474.9732              1501.9907              1555.9512
 Red. masses --      2.5298                 2.5772                10.2106
 Frc consts  --      3.2427                 3.4256                14.5644
 IR Inten    --     49.0787                 5.8175               128.3278

                     31                     32                     33
                      A                      A                      A
 Frequencies --   1615.9905              1655.1549              3192.1409
 Red. masses --      5.7422                 6.4784                 1.0861
 Frc consts  --      8.8350                10.4567                 6.5204
 IR Inten    --      3.6854                 9.3972                 1.3189

                     34                     35                     36
                      A                      A                      A
 Frequencies --   3204.1320              3214.1655              3222.9344
 Red. masses --      1.0901                 1.0952                 1.0960
 Frc consts  --      6.5941                 6.6664                 6.7078
 IR Inten    --      7.4642                14.2268                 7.7690

 - Thermochemistry -
 -------------------
 Temperature   298.150 Kelvin.  Pressure   1.00000 Atm.
 Atom     1 has atomic number 17 and mass  34.96885

 Molecular mass:   168.97530 amu.
 Principal axes and moments of inertia in atomic units:
                           1         2         3
     Eigenvalues --   643.473222797.037243440.51045
           X            0.99999  -0.00512  -0.00000
           Y            0.00512   0.99999   0.00003
           Z            0.00000  -0.00003   1.00000
 This molecule is an asymmetric top.
 Rotational symmetry number  1.
 Warning -- assumption of classical behavior for rotation
           may cause significant error
 Rotational temperatures (Kelvin)      0.13460     0.03097     0.02517
 Rotational constants (GHZ):           2.80469     0.64523     0.52456
 Zero-point vibrational energy     244678.3 (Joules/Mol)
                                   58.47953 (Kcal/Mol)
 Warning -- explicit consideration of  11 degrees of freedom as
           vibrations may cause significant error
 Vibrational temperatures:    155.42   280.31   301.42   431.52   541.52
          (Kelvin)            568.89   625.23   737.09   748.87   855.77
                              874.40   966.28  1031.90  1061.10  1110.23
                             1252.91  1252.93  1366.82  1425.05  1450.91
                             1507.79  1572.86  1656.57  1713.52  1826.09
                             1885.86  1962.15  2122.16  2161.03  2238.67
                             2325.05  2381.40  4592.78  4610.03  4624.47
                             4637.08

 Zero-point correction=                           0.093193 (Hartree/Particle)
 Thermal correction to Energy=                    0.100748
 Thermal correction to Enthalpy=                  0.101692
 Thermal correction to Gibbs Free Energy=         0.060096
 Sum of electronic and zero-point Energies=          -1182.239395
 Sum of electronic and thermal Energies=             -1182.231840
 Sum of electronic and thermal Enthalpies=           -1182.230896
 Sum of electronic and thermal Free Energies=        -1182.272492

                     E (Thermal)             CV                S
                      KCal/Mol        Cal/Mol-Kelvin    Cal/Mol-Kelvin
 Total                   63.220             29.345             87.547
 Electronic               0.000              0.000              0.000
 Translational            0.889              2.981             41.282
 Rotational               0.889              2.981             30.205
 Vibrational             61.443             23.383             16.060
 Vibration     1          0.606              1.943              3.304
 Vibration     2          0.635              1.847              2.181
 Vibration     3          0.642              1.826              2.048
 Vibration     4          0.692              1.674              1.417
 Vibration     5          0.747              1.520              1.054
 Vibration     6          0.762              1.480              0.980
 Vibration     7          0.795              1.395              0.844
 Vibration     8          0.867              1.223              0.628
 Vibration     9          0.875              1.205              0.609
 Vibration    10          0.952              1.043              0.459
 Vibration    11          0.967              1.015              0.437

 Optimization completed.
    -- Stationary point found.
 Normal termination of Gaussian 16 at Tue Sep 17 09:55:24 2024.

 ----------------------------------------------------------------------
 #p M062X/def2tzvp geom=check guess=read scf(xqc,tight) integral(grid=u
 ltrafine) scrf(SMD, solvent=1,4-Dioxane) polar prop=efg volume
 ----------------------------------------------------------------------

 ---
 spe
 ---
 Structure from the checkpoint file:  "smiles_00046_conf_0.chk"
 Charge =  0 Multiplicity = 1

 SCF Done:  E(RM062X) =  -1182.28993644     A.U. after   12 cycles

  Exact polarizability:     204.065      -4.440     134.876       0.001      -0.001      68.615
 Approx polarizability:     215.103      -5.621     171.993      -0.001      -0.002      88.841

 Normal termination of Gaussian 16 at Tue Sep 17 10:14:55 2024.
 Gaussian 16:  ES64L-G16RevC.02  7-Dec-2021

 ----------------------------------------------------------------------
 #p M062X/def2tzvp geom=check guess=read scf(xqc,tight) integral(grid=u
 ltrafine) scrf(SMD, solvent=1,4-Dioxane) nmr=giao
 ----------------------------------------------------------------------

 ---
 spe
 ---
 Structure from the checkpoint file:  "smiles_00046_conf_0.chk"
 Charge =  0 Multiplicity = 1

                         Standard orientation:
 ---------------------------------------------------------------------
 Center     Atomic      Atomic             Coordinates (Angstroms)
 Number     Number       Type             X           Y           Z
 ---------------------------------------------------------------------
      1         17           0       -3.202534   -0.402210   -0.000003
      2          6           0       -1.482630   -0.218747    0.000275
      3          7           0       -0.663588   -1.205933    0.000040
      4          6           0        0.647082   -0.739621    0.000001
      5          6           0        1.786366   -1.552883   -0.000036
      6          6           0        3.038828   -0.951362    0.000002
      7          6           0        3.168380    0.447075    0.000048
      8          6           0        2.047968    1.273657    0.000046
      9          6           0        0.790727    0.669737    0.000037
     10         16           0       -0.800039    1.416594   -0.000153
     11          1           0        1.668063   -2.630559   -0.000066
     12          1           0        3.930406   -1.569745   -0.000013
     13          1           0        4.157425    0.893679    0.000049
     14          1           0        2.152605    2.353094    0.000020
 ---------------------------------------------------------------------

 SCF Done:  E(RM062X) =  -1182.28993644     A.U. after    1 cycles

      1  Cl   Isotropic =   608.0204   Anisotropy =   582.9648

      2  C    Isotropic =    -3.4284   Anisotropy =    87.1227

      3  N    Isotropic =  -124.3723   Anisotropy =   437.1343

      4  C    Isotropic =    13.0029   Anisotropy =   151.2766

      5  C    Isotropic =    39.9666   Anisotropy =   199.0943

      6  C    Isotropic =    37.0779   Anisotropy =   216.3589

      7  C    Isotropic =    37.4085   Anisotropy =   213.0763

      8  C    Isotropic =    43.3308   Anisotropy =   203.5859

      9  C    Isotropic =    21.7733   Anisotropy =   152.1739

     10  S    Isotropic =   169.6054   Anisotropy =   297.8509

     11  H    Isotropic =    22.9972   Anisotropy =     7.0597

     12  H    Isotropic =    23.4658   Anisotropy =     6.1026

     13  H    Isotropic =    23.5032   Anisotropy =     6.2978

     14  H    Isotropic =    23.2292   Anisotropy =     8.4409

 The electronic state is 1-A.
 Alpha  occ. eigenvalues -- -102.67236 -89.95364 -14.77502 -10.67583 -10.59392
 Alpha  occ. eigenvalues --  -10.59314 -10.56314 -10.55584 -10.55559 -10.55323
 Alpha  occ. eigenvalues --   -9.83468  -8.31110  -7.55678  -7.55141  -7.55116
 Alpha  occ. eigenvalues --   -6.23026  -6.22846  -6.22626  -1.10279  -0.98451
 Alpha  occ. eigenvalues --   -0.95570  -0.90582  -0.84854  -0.82384  -0.70994
 Alpha  occ. eigenvalues --   -0.69167  -0.65844  -0.57635  -0.57099  -0.56026
 Alpha  occ. eigenvalues --   -0.52566  -0.51667  -0.49134  -0.47222  -0.45229
 Alpha  occ. eigenvalues --   -0.44194  -0.40886  -0.39909  -0.39645  -0.37734
 Alpha  occ. eigenvalues --   -0.36789  -0.29946  -0.29901
 Alpha virt. eigenvalues --   -0.01983   0.00716   0.02018   0.04802   0.05892
 Alpha virt. eigenvalues --    0.09644   0.10842   0.11097   0.12672   0.14004
 Alpha virt. eigenvalues --    0.14785   0.17052   0.17638   0.19452   0.19896

 Mulliken charges:
               1
     1  Cl  -0.026478
     2  C    0.050394
     3  N   -0.210220
     4  C    0.178281
     5  C   -0.234153
     6  C   -0.141431
     7  C   -0.155583
     8  C   -0.184025
     9  C   -0.032572
    10  S    0.071746
    11  H    0.177060
    12  H    0.166780
    13  H    0.166901
    14  H    0.173302
 Sum of Mulliken charges =  -0.00000

 Dipole moment (field-independent basis, Debye):
    X=              2.3778    Y=              1.5801    Z=             -0.0002  Tot=              2.8549
 Quadrupole moment (field-independent basis, Debye-Ang):
   XX=            -62.3843   YY=            -67.6269   ZZ=            -74.2651
   XY=             -1.5052   XZ=              0.0001   YZ=             -0.0005

 Normal termination of Gaussian 16 at Tue Sep 17 10:21:42 2024.
