 Gaussian 16, Revision C.02,

 ----------------------------------------------------------------------
 #p B3LYP/6-31G(d,p) EmpiricalDispersion=GD3BJ opt freq scf(xqc,tight)
 integral(grid=ultrafine)
 ----------------------------------------------------------------------

 ----------------------------------
 opt-freq conformers_unique/conf_aa
 ----------------------------------
 Symbolic Z-matrix:
 Charge =  0 Multiplicity = 1

 SCF Done:  E(RB3LYP) =  -3043.22830063     A.U. after   15 cycles
 SCF Done:  E(RB3LYP) =  -3043.23083187     A.U. after   13 cycles
 SCF Done:  E(RB3LYP) =  -3043.23087004     A.U. after   11 cycles
 SCF Done:  E(RB3LYP) =  -3043.23086304     A.U. after   12 cycles
 SCF Done:  E(RB3LYP) =  -3043.23090190     A.U. after   11 cycles
 SCF Done:  E(RB3LYP) =  -3043.23090245     A.U. after    8 cycles
 SCF Done:  E(RB3LYP) =  -3043.23090264     A.U. after    8 cycles
 Optimization completed.
    -- Stationary point found.
 Normal termination of Gaussian 16 at Tue Sep 17 09:49:43 2024.

 ----------------------------------------------------------------------
 #P Geom=AllCheck Guess=TCheck SCRF=Check GenChk RB3LYP/6-31G(d,p) Freq
 ----------------------------------------------------------------------

 Structure from the checkpoint file:  "smiles_00051_conf_0.chk"
 ----------------------------------
 opt-freq conformers_unique/conf_aa
 ----------------------------------
 Charge =  0 Multiplicity = 1

 SCF Done:  E(RB3LYP) =  -3043.23090264     A.U. after    1 cycles

                      1                      2                      3
                      A                      A                      A
 Frequencies --    108.1995               115.8259               119.4701
 Red. masses --      7.9788                13.8675                 7.1838
 Frc consts  --      0.0550                 0.1096                 0.0604
 IR Inten    --      2.2749                 3.0289                 0.0174

                      4                      5                      6
                      A                      A                      A
 Frequencies --    193.8784               225.4949               283.7228
 Red. masses --      7.5820                 4.0469                17.9214
 Frc consts  --      0.1679                 0.1212                 0.8500
 IR Inten    --      0.1342                 2.5810                 0.4849

                      7                      8                      9
                      A                      A                      A
 Frequencies --    310.5119               398.6215               403.8156
 Red. masses --      7.5346                 5.5558                 7.1655
 Frc consts  --      0.4280                 0.5201                 0.6884
 IR Inten    --      1.5081                11.3140                 5.7185

                     10                     11                     12
                      A                      A                      A
 Frequencies --    463.5985               540.2002               580.4268
 Red. masses --      9.6999                 6.7884                 3.7621
 Frc consts  --      1.2283                 1.1672                 0.7467
 IR Inten    --      4.4987                 2.1816                 1.9313

                     13                     14                     15
                      A                      A                      A
 Frequencies --    611.4599               635.3025               680.1428
 Red. masses --      5.7949                 3.8498                 6.2606
 Frc consts  --      1.2765                 0.9155                 1.7063
 IR Inten    --      0.0032                 0.9407                 0.8186

                     16                     17                     18
                      A                      A                      A
 Frequencies --    708.6352               762.8330               770.8618
 Red. masses --      1.2440                 8.5096                 7.8746
 Frc consts  --      0.3681                 2.9175                 2.7570
 IR Inten    --     35.3332                 2.8874                17.5705

                     19                     20                     21
                      A                      A                      A
 Frequencies --    868.2370               895.6349               896.0820
 Red. masses --      1.4533                 1.3447                 7.0692
 Frc consts  --      0.6455                 0.6355                 3.3444
 IR Inten    --     19.7452                 8.9467                34.9920

                     22                     23                     24
                      A                      A                      A
 Frequencies --    902.9391               920.3445              1063.9119
 Red. masses --      1.3947                 6.6151                 5.3764
 Frc consts  --      0.6700                 3.3013                 3.5856
 IR Inten    --      5.5869                10.9101                 1.8395

                     25                     26                     27
                      A                      A                      A
 Frequencies --   1104.8523              1118.4654              1187.3862
 Red. masses --      1.5791                 1.7785                 2.3929
 Frc consts  --      1.1357                 1.3108                 1.9877
 IR Inten    --      8.7561                 7.8268                26.1677

                     28                     29                     30
                      A                      A                      A
 Frequencies --   1252.2531              1285.5137              1335.9144
 Red. masses --      1.7621                 3.4275                 2.6516
 Frc consts  --      1.6280                 3.3372                 2.7881
 IR Inten    --     12.8664                 1.2684                89.5104

                     31                     32                     33
                      A                      A                      A
 Frequencies --   1378.2387              1389.3982              1461.0272
 Red. masses --      4.3820                 2.7432                 5.4347
 Frc consts  --      4.9042                 3.1200                 6.8351
 IR Inten    --     47.5025                 1.2708                 6.8826

                     34                     35                     36
                      A                      A                      A
 Frequencies --   1508.6758              1539.8331              1586.1649
 Red. masses --      3.8516                 6.3328                 5.8047
 Frc consts  --      5.1651                 8.8470                 8.6045
 IR Inten    --      3.5415                30.5720                21.5437

                     37                     38                     39
                      A                      A                      A
 Frequencies --   1661.2090              2360.9545              3243.0739
 Red. masses --      7.2864                12.6753                 1.0928
 Frc consts  --     11.8470                41.6278                 6.7717
 IR Inten    --      3.6094                10.5802                 3.8326

                     40                     41                     42
                      A                      A                      A
 Frequencies --   3250.5193              3257.3153              3296.1947
 Red. masses --      1.0938                 1.0942                 1.1015
 Frc consts  --      6.8090                 6.8404                 7.0515
 IR Inten    --      1.4367                 5.1496                 0.1753

 - Thermochemistry -
 -------------------
 Temperature   298.150 Kelvin.  Pressure   1.00000 Atm.
 Atom     1 has atomic number  7 and mass  14.00307

 Molecular mass:   220.95886 amu.
 Principal axes and moments of inertia in atomic units:
                           1         2         3
     Eigenvalues --  1531.316894216.452025747.76891
           X            0.99979  -0.02050   0.00006
           Y            0.02050   0.99979  -0.00002
           Z           -0.00006   0.00002   1.00000
 This molecule is an asymmetric top.
 Rotational symmetry number  1.
 Warning -- assumption of classical behavior for rotation
           may cause significant error
 Rotational temperatures (Kelvin)      0.05656     0.02054     0.01507
 Rotational constants (GHZ):           1.17856     0.42802     0.31399
 Zero-point vibrational energy     279191.3 (Joules/Mol)
                                   66.72832 (Kcal/Mol)
 Warning -- explicit consideration of  13 degrees of freedom as
           vibrations may cause significant error
 Vibrational temperatures:    155.68   166.65   171.89   278.95   324.44
          (Kelvin)            408.21   446.76   573.53   581.00   667.01
                              777.23   835.10   879.75   914.06   978.57
                             1019.57  1097.55  1109.10  1249.20  1288.62
                             1289.26  1299.13  1324.17  1530.73  1589.64
                             1609.22  1708.38  1801.71  1849.57  1922.08
                             1982.98  1999.03  2102.09  2170.65  2215.48
                             2282.14  2390.11  3396.89  4666.06  4676.77
                             4686.55  4742.49

 Zero-point correction=                           0.106338 (Hartree/Particle)
 Thermal correction to Energy=                    0.115611
 Thermal correction to Enthalpy=                  0.116555
 Thermal correction to Gibbs Free Energy=         0.070286
 Sum of electronic and zero-point Energies=          -3043.124564
 Sum of electronic and thermal Energies=             -3043.115292
 Sum of electronic and thermal Enthalpies=           -3043.114347
 Sum of electronic and thermal Free Energies=        -3043.160616

                     E (Thermal)             CV                S
                      KCal/Mol        Cal/Mol-Kelvin    Cal/Mol-Kelvin
 Total                   72.547             34.941             97.381
 Electronic               0.000              0.000              0.000
 Translational            0.889              2.981             42.081
 Rotational               0.889              2.981             31.984
 Vibrational             70.770             28.979             23.315
 Vibration     1          0.606              1.943              3.301
 Vibration     2          0.608              1.936              3.169
 Vibration     3          0.609              1.933              3.109
 Vibration     4          0.635              1.848              2.190
 Vibration     5          0.650              1.802              1.915
 Vibration     6          0.682              1.704              1.511
 Vibration     7          0.699              1.654              1.360
 Vibration     8          0.765              1.473              0.968
 Vibration     9          0.769              1.462              0.949
 Vibration    10          0.821              1.331              0.756
 Vibration    11          0.895              1.161              0.565
 Vibration    12          0.937              1.074              0.485
 Vibration    13          0.971              1.008              0.430

 Optimization completed.
    -- Stationary point found.
 Normal termination of Gaussian 16 at Tue Sep 17 09:50:52 2024.

 ----------------------------------------------------------------------
 #p M062X/def2tzvp geom=check guess=read scf(xqc,tight) integral(grid=u
 ltrafine) scrf(SMD, solvent=1,4-Dioxane) polar prop=efg volume
 ----------------------------------------------------------------------

 ---
 spe
 ---
 Structure from the checkpoint file:  "smiles_00051_conf_0.chk"
 Charge =  0 Multiplicity = 1

 SCF Done:  E(RM062X) =  -3045.68131083     A.U. after   13 cycles

  Exact polarizability:     210.229      -5.659     179.810      -0.006       0.003      75.061
 Approx polarizability:     225.484      -1.681     204.250      -0.005       0.005      95.028

 Normal termination of Gaussian 16 at Tue Sep 17 10:24:32 2024.
 Gaussian 16:  ES64L-G16RevC.02  7-Dec-2021

 ----------------------------------------------------------------------
 #p M062X/def2tzvp geom=check guess=read scf(xqc,tight) integral(grid=u
 ltrafine) scrf(SMD, solvent=1,4-Dioxane) nmr=giao
 ----------------------------------------------------------------------

 ---
 spe
 ---
 Structure from the checkpoint file:  "smiles_00051_conf_0.chk"
 Charge =  0 Multiplicity = 1

                         Standard orientation:
 ---------------------------------------------------------------------
 Center     Atomic      Atomic             Coordinates (Angstroms)
 Number     Number       Type             X           Y           Z
 ---------------------------------------------------------------------
      1          7           0        2.472938    3.349419    0.000062
      2          6           0        1.888794    2.344656   -0.000162
      3          6           0        1.132885    1.132231   -0.000100
      4          6           0       -0.249483    1.160792   -0.000002
      5          6           0       -0.973783   -0.055929    0.000055
      6         35           0       -2.872996   -0.010113    0.000166
      7          6           0       -0.338670   -1.267168    0.000018
      8          7           0        1.030730   -1.291023   -0.000074
      9          6           0        1.919082   -2.345939   -0.000170
     10          6           0        3.172046   -1.766050   -0.000176
     11          7           0        3.107767   -0.401719   -0.000197
     12          6           0        1.815770   -0.115843   -0.000134
     13          1           0       -0.777917    2.104972    0.000027
     14          1           0       -0.856242   -2.216692    0.000046
     15          1           0        1.586090   -3.371188   -0.000179
     16          1           0        4.123034   -2.280380   -0.000214
 ---------------------------------------------------------------------

 SCF Done:  E(RM062X) =  -3045.68131083     A.U. after    1 cycles

      1  N    Isotropic =   -96.2420   Anisotropy =   466.4237

      2  C    Isotropic =    54.3589   Anisotropy =   375.1924

      3  C    Isotropic =    63.1278   Anisotropy =   141.4459

      4  C    Isotropic =    26.9226   Anisotropy =   186.5329

      5  C    Isotropic =    45.4287   Anisotropy =   130.5056

      6  Br   Isotropic =  2117.9631   Anisotropy =  1264.4707

      7  C    Isotropic =    34.1548   Anisotropy =   141.0603

      8  N    Isotropic =     0.9874   Anisotropy =   268.8675

      9  C    Isotropic =    55.9174   Anisotropy =   114.5587

     10  C    Isotropic =    28.3938   Anisotropy =   154.8324

     11  N    Isotropic =   -49.3809   Anisotropy =   437.1311

     12  C    Isotropic =    22.5248   Anisotropy =   136.9841

     13  H    Isotropic =    23.4356   Anisotropy =    11.6286

     14  H    Isotropic =    22.7555   Anisotropy =    11.7240

     15  H    Isotropic =    23.5487   Anisotropy =     5.4638

     16  H    Isotropic =    23.2943   Anisotropy =     4.6003

 The electronic state is 1-A.
 Alpha  occ. eigenvalues -- -485.39789 -63.38255 -57.20213 -57.19956 -57.19955
 Alpha  occ. eigenvalues --  -14.86033 -14.76875 -14.75497 -10.63732 -10.63188
 Alpha  occ. eigenvalues --  -10.63088 -10.61618 -10.59850 -10.59565 -10.58936
 Alpha  occ. eigenvalues --  -10.58198  -9.04899  -6.87349  -6.86397  -6.86394
 Alpha  occ. eigenvalues --   -2.90725  -2.90377  -2.90367  -2.89481  -2.89481
 Alpha  occ. eigenvalues --   -1.17270  -1.04137  -1.02901  -0.98157  -0.92810
 Alpha  occ. eigenvalues --   -0.86781  -0.84686  -0.78387  -0.72898  -0.71125
 Alpha  occ. eigenvalues --   -0.65881  -0.62014  -0.58749  -0.57241  -0.57076
 Alpha  occ. eigenvalues --   -0.53376  -0.50051  -0.48474  -0.47471  -0.47032
 Alpha  occ. eigenvalues --   -0.45614  -0.45556  -0.41521  -0.40222  -0.37504
 Alpha  occ. eigenvalues --   -0.37391  -0.37053  -0.31159  -0.28822
 Alpha virt. eigenvalues --   -0.05828   0.00243   0.01308   0.06214   0.07040
 Alpha virt. eigenvalues --    0.07986   0.08229   0.08774   0.10525   0.11109
 Alpha virt. eigenvalues --    0.12201   0.13625   0.15497   0.16733   0.17542

 Mulliken charges:
               1
     1  N   -0.019945
     2  C   -0.212442
     3  C    0.111116
     4  C   -0.142788
     5  C    0.006084
     6  Br  -0.069057
     7  C   -0.057347
     8  N   -0.005387
     9  C   -0.155473
    10  C   -0.095076
    11  N   -0.320064
    12  C    0.182699
    13  H    0.207649
    14  H    0.205470
    15  H    0.189363
    16  H    0.175198
 Sum of Mulliken charges =  -0.00000

 Dipole moment (field-independent basis, Debye):
    X=             -4.1372    Y=             -6.2616    Z=             -0.0002  Tot=              7.5049
 Quadrupole moment (field-independent basis, Debye-Ang):
   XX=            -94.5015   YY=            -82.0135   ZZ=            -83.0260
   XY=            -16.7457   XZ=             -0.0002   YZ=             -0.0003

 Normal termination of Gaussian 16 at Tue Sep 17 10:36:52 2024.
