 Gaussian 16, Revision C.02,

 ----------------------------------------------------------------------
 #p B3LYP/6-31G(d,p) EmpiricalDispersion=GD3BJ opt freq scf(xqc,tight)
 integral(grid=ultrafine)
 ----------------------------------------------------------------------

 ----------------------------------
 opt-freq conformers_unique/conf_aa
 ----------------------------------
 Symbolic Z-matrix:
 Charge =  0 Multiplicity = 1

 SCF Done:  E(RB3LYP) =  -2994.16065615     A.U. after   15 cycles
 SCF Done:  E(RB3LYP) =  -2994.16191066     A.U. after   12 cycles
 SCF Done:  E(RB3LYP) =  -2994.16193691     A.U. after    9 cycles
 SCF Done:  E(RB3LYP) =  -2994.16193916     A.U. after    8 cycles
 Optimization completed.
    -- Stationary point found.
 Normal termination of Gaussian 16 at Tue Sep 17 09:56:41 2024.

 ----------------------------------------------------------------------
 #P Geom=AllCheck Guess=TCheck SCRF=Check GenChk RB3LYP/6-31G(d,p) Freq
 ----------------------------------------------------------------------

 Structure from the checkpoint file:  "smiles_00111_conf_0.chk"
 ----------------------------------
 opt-freq conformers_unique/conf_aa
 ----------------------------------
 Charge =  0 Multiplicity = 1

 SCF Done:  E(RB3LYP) =  -2994.16193916     A.U. after    2 cycles

                      1                      2                      3
                      A                      A                      A
 Frequencies --     65.0608                81.9423               173.2939
 Red. masses --      1.9759                 7.9732                 8.2018
 Frc consts  --      0.0049                 0.0315                 0.1451
 IR Inten    --      0.4528                 3.6602                 2.3865

                      4                      5                      6
                      A                      A                      A
 Frequencies --    177.2489               245.6184               250.1175
 Red. masses --      3.1344                15.0427                 5.4693
 Frc consts  --      0.0580                 0.5347                 0.2016
 IR Inten    --      2.4404                 0.4742                 0.0003

                      7                      8                      9
                      A                      A                      A
 Frequencies --    343.4094               433.9585               504.8525
 Red. masses --      6.0335                 2.8499                 4.5338
 Frc consts  --      0.4192                 0.3162                 0.6808
 IR Inten    --     11.0385                 2.8281                 3.7894

                     10                     11                     12
                      A                      A                      A
 Frequencies --    514.5524               576.2696               586.0043
 Red. masses --      3.9611                 2.2169                 6.3148
 Frc consts  --      0.6179                 0.4338                 1.2777
 IR Inten    --      0.9830                 3.2562                 5.9058

                     13                     14                     15
                      A                      A                      A
 Frequencies --    599.3755               679.3803               720.2213
 Red. masses --      6.9891                 6.6924                 2.6784
 Frc consts  --      1.4793                 1.8200                 0.8186
 IR Inten    --      1.6184                 1.9613                 2.4276

                     16                     17                     18
                      A                      A                      A
 Frequencies --    758.0970               833.9663               854.8228
 Red. masses --      5.7666                 1.5075                 1.5053
 Frc consts  --      1.9526                 0.6177                 0.6481
 IR Inten    --      5.4886                15.7018                12.1852

                     19                     20                     21
                      A                      A                      A
 Frequencies --    865.5791               907.0385               987.2168
 Red. masses --      5.1534                 1.4052                 1.3760
 Frc consts  --      2.2749                 0.6811                 0.7901
 IR Inten    --     45.7227                 7.7655                 0.0333

                     22                     23                     24
                      A                      A                      A
 Frequencies --    998.3096              1017.8689              1040.7103
 Red. masses --      2.4810                 2.0412                 5.4517
 Frc consts  --      1.4569                 1.2460                 3.4789
 IR Inten    --      1.3327                 0.0008                51.7313

                     25                     26                     27
                      A                      A                      A
 Frequencies --   1081.8247              1130.3806              1162.6470
 Red. masses --      2.0501                 2.0900                 1.2227
 Frc consts  --      1.4136                 1.5734                 0.9738
 IR Inten    --     27.2244                14.7126                 0.4924

                     28                     29                     30
                      A                      A                      A
 Frequencies --   1190.3786              1231.1495              1240.8845
 Red. masses --      2.1409                 1.7221                 1.1122
 Frc consts  --      1.7874                 1.5379                 1.0090
 IR Inten    --     10.4670                35.6872                 0.0154

                     31                     32                     33
                      A                      A                      A
 Frequencies --   1277.5924              1296.8310              1321.5089
 Red. masses --      1.8448                 1.7293                 1.7998
 Frc consts  --      1.7741                 1.7135                 1.8519
 IR Inten    --     22.0195                42.0842                23.1685

                     34                     35                     36
                      A                      A                      A
 Frequencies --   1368.3595              1454.9923              1462.8542
 Red. masses --      6.0535                 4.1325                 1.0886
 Frc consts  --      6.6782                 5.1544                 1.3725
 IR Inten    --     38.6417                15.0100                 0.9687

                     37                     38                     39
                      A                      A                      A
 Frequencies --   1495.0752              1508.9863              1629.8654
 Red. masses --      1.2821                 1.8898                 7.3936
 Frc consts  --      1.6885                 2.5353                11.5720
 IR Inten    --     11.6088                 5.0741                50.8480

                     40                     41                     42
                      A                      A                      A
 Frequencies --   1649.3806              1817.3715              3057.8605
 Red. masses --      7.3529                12.8179                 1.0602
 Frc consts  --     11.7855                24.9434                 5.8410
 IR Inten    --    133.6301               304.5399                19.7152

                     43                     44                     45
                      A                      A                      A
 Frequencies --   3079.3181              3089.8911              3121.4081
 Red. masses --      1.0615                 1.1051                 1.1036
 Frc consts  --      5.9301                 6.2165                 6.3351
 IR Inten    --     10.5634                 7.6544                 9.2850

                     46                     47                     48
                      A                      A                      A
 Frequencies --   3206.5526              3211.5181              3226.3347
 Red. masses --      1.0893                 1.0920                 1.0948
 Frc consts  --      6.5991                 6.6358                 6.7146
 IR Inten    --      1.4384                 1.3700                 2.1431

 - Thermochemistry -
 -------------------
 Temperature   298.150 Kelvin.  Pressure   1.00000 Atm.
 Atom     1 has atomic number  8 and mass  15.99491

 Molecular mass:   209.96803 amu.
 Principal axes and moments of inertia in atomic units:
                           1         2         3
     Eigenvalues --   720.483624935.967405634.26165
           X            0.99983  -0.01866  -0.00010
           Y            0.01866   0.99983  -0.00009
           Z            0.00010   0.00008   1.00000
 This molecule is an asymmetric top.
 Rotational symmetry number  1.
 Warning -- assumption of classical behavior for rotation
           may cause significant error
 Rotational temperatures (Kelvin)      0.12022     0.01755     0.01537
 Rotational constants (GHZ):           2.50490     0.36563     0.32032
 Zero-point vibrational energy     356055.8 (Joules/Mol)
                                   85.09938 (Kcal/Mol)
 Warning -- explicit consideration of  13 degrees of freedom as
           vibrations may cause significant error
 Vibrational temperatures:     93.61   117.90   249.33   255.02   353.39
          (Kelvin)            359.86   494.09   624.37   726.37   740.33
                              829.12   843.13   862.37   977.48  1036.24
                             1090.73  1199.89  1229.90  1245.38  1305.03
                             1420.38  1436.34  1464.49  1497.35  1556.50
                             1626.37  1672.79  1712.69  1771.35  1785.36
                             1838.17  1865.85  1901.36  1968.76  2093.41
                             2104.72  2151.08  2171.09  2345.01  2373.09
                             2614.79  4399.58  4430.45  4445.66  4491.01
                             4613.51  4620.66  4641.98

 Zero-point correction=                           0.135614 (Hartree/Particle)
 Thermal correction to Energy=                    0.144674
 Thermal correction to Enthalpy=                  0.145618
 Thermal correction to Gibbs Free Energy=         0.099656
 Sum of electronic and zero-point Energies=          -2994.026325
 Sum of electronic and thermal Energies=             -2994.017265
 Sum of electronic and thermal Enthalpies=           -2994.016321
 Sum of electronic and thermal Free Energies=        -2994.062283

                     E (Thermal)             CV                S
                      KCal/Mol        Cal/Mol-Kelvin    Cal/Mol-Kelvin
 Total                   90.784             34.197             96.736
 Electronic               0.000              0.000              0.000
 Translational            0.889              2.981             41.929
 Rotational               0.889              2.981             31.372
 Vibrational             89.007             28.236             23.435
 Vibration     1          0.597              1.971              4.297
 Vibration     2          0.600              1.962              3.844
 Vibration     3          0.627              1.875              2.399
 Vibration     4          0.628              1.870              2.357
 Vibration     5          0.660              1.770              1.762
 Vibration     6          0.663              1.763              1.730
 Vibration     7          0.722              1.589              1.196
 Vibration     8          0.795              1.396              0.846
 Vibration     9          0.860              1.239              0.646
 Vibration    10          0.870              1.218              0.623
 Vibration    11          0.933              1.083              0.492
 Vibration    12          0.943              1.062              0.474
 Vibration    13          0.957              1.033              0.451

 Optimization completed.
    -- Stationary point found.
 Normal termination of Gaussian 16 at Tue Sep 17 09:57:38 2024.

 ----------------------------------------------------------------------
 #p M062X/def2tzvp geom=check guess=read scf(xqc,tight) integral(grid=u
 ltrafine) scrf(SMD, solvent=1,4-Dioxane) polar prop=efg volume
 ----------------------------------------------------------------------

 ---
 spe
 ---
 Structure from the checkpoint file:  "smiles_00111_conf_0.chk"
 Charge =  0 Multiplicity = 1

 SCF Done:  E(RM062X) =  -2996.59137271     A.U. after   12 cycles

  Exact polarizability:     208.894       1.428     144.327       0.013       0.006      80.475
 Approx polarizability:     207.085       8.437     168.702       0.008       0.005     101.455

 Normal termination of Gaussian 16 at Tue Sep 17 10:29:05 2024.
 Gaussian 16:  ES64L-G16RevC.02  7-Dec-2021

 ----------------------------------------------------------------------
 #p M062X/def2tzvp geom=check guess=read scf(xqc,tight) integral(grid=u
 ltrafine) scrf(SMD, solvent=1,4-Dioxane) nmr=giao
 ----------------------------------------------------------------------

 ---
 spe
 ---
 Structure from the checkpoint file:  "smiles_00111_conf_0.chk"
 Charge =  0 Multiplicity = 1

                         Standard orientation:
 ---------------------------------------------------------------------
 Center     Atomic      Atomic             Coordinates (Angstroms)
 Number     Number       Type             X           Y           Z
 ---------------------------------------------------------------------
      1          8           0        3.856860    1.402062    0.000233
      2          6           0        3.100287    0.450162    0.000521
      3          6           0        3.510041   -1.031803    0.000748
      4          6           0        2.195157   -1.846486   -0.000287
      5          6           0        1.097270   -0.801173   -0.000044
      6          6           0       -0.282114   -0.996574   -0.000188
      7          6           0       -1.097777    0.134226   -0.000109
      8         35           0       -2.992317   -0.098331   -0.000289
      9          6           0       -0.582889    1.437991    0.000085
     10          6           0        0.795072    1.620197    0.000233
     11          6           0        1.620468    0.494427    0.000207
     12          1           0        4.133695   -1.227715   -0.876547
     13          1           0        4.131973   -1.227596    0.879313
     14          1           0        2.112624   -2.497031    0.876981
     15          1           0        2.113319   -2.495614   -0.878681
     16          1           0       -0.721179   -1.987922   -0.000379
     17          1           0       -1.261429    2.282489    0.000139
     18          1           0        1.234123    2.612700    0.000413
 ---------------------------------------------------------------------

 SCF Done:  E(RM062X) =  -2996.59137271     A.U. after    1 cycles

      1  O    Isotropic =  -357.3917   Anisotropy =  1097.3332

      2  C    Isotropic =   -49.6935   Anisotropy =   167.4937

      3  C    Isotropic =   144.7277   Anisotropy =    44.1472

      4  C    Isotropic =   157.3135   Anisotropy =    28.8627

      5  C    Isotropic =     0.3712   Anisotropy =   229.1065

      6  C    Isotropic =    33.0637   Anisotropy =   171.5574

      7  C    Isotropic =    15.3910   Anisotropy =   154.6381

      8  Br   Isotropic =  2047.4423   Anisotropy =  1287.4649

      9  C    Isotropic =    33.0451   Anisotropy =   182.7415

     10  C    Isotropic =    38.1320   Anisotropy =   215.6631

     11  C    Isotropic =    25.5547   Anisotropy =   201.1358

     12  H    Isotropic =    29.1879   Anisotropy =     7.7059

     13  H    Isotropic =    29.1886   Anisotropy =     7.7079

     14  H    Isotropic =    28.6469   Anisotropy =     8.1423

     15  H    Isotropic =    28.6474   Anisotropy =     8.1438

     16  H    Isotropic =    23.4367   Anisotropy =    12.0696

     17  H    Isotropic =    23.6160   Anisotropy =    10.4341

     18  H    Isotropic =    23.2186   Anisotropy =     6.5505

 The electronic state is 1-A.
 Alpha  occ. eigenvalues -- -485.38258 -63.36736 -57.18681 -57.18447 -57.18437
 Alpha  occ. eigenvalues --  -19.61998 -10.63292 -10.61841 -10.57329 -10.56609
 Alpha  occ. eigenvalues --  -10.56497 -10.56415 -10.55490 -10.55484 -10.54754
 Alpha  occ. eigenvalues --   -9.03381  -6.85787  -6.84919  -6.84886  -2.89164
 Alpha  occ. eigenvalues --   -2.88853  -2.88817  -2.88008  -2.88008  -1.16522
 Alpha  occ. eigenvalues --   -0.99977  -0.93971  -0.89146  -0.85645  -0.81796
 Alpha  occ. eigenvalues --   -0.76698  -0.71505  -0.66955  -0.64303  -0.57097
 Alpha  occ. eigenvalues --   -0.55878  -0.55267  -0.53289  -0.51347  -0.50283
 Alpha  occ. eigenvalues --   -0.47598  -0.47256  -0.47078  -0.44570  -0.42347
 Alpha  occ. eigenvalues --   -0.41928  -0.41761  -0.37877  -0.35803  -0.32472
 Alpha  occ. eigenvalues --   -0.32318  -0.30614
 Alpha virt. eigenvalues --   -0.03639   0.00163   0.03090   0.06815   0.07008
 Alpha virt. eigenvalues --    0.09513   0.10663   0.11707   0.12695   0.13149
 Alpha virt. eigenvalues --    0.14426   0.16042   0.17721   0.18346   0.19068

 Mulliken charges:
               1
     1  O   -0.326786
     2  C    0.190471
     3  C   -0.286719
     4  C   -0.285142
     5  C    0.036028
     6  C   -0.230226
     7  C    0.087679
     8  Br  -0.099137
     9  C   -0.153679
    10  C   -0.204295
    11  C    0.048035
    12  H    0.170823
    13  H    0.170829
    14  H    0.167055
    15  H    0.167052
    16  H    0.183530
    17  H    0.184324
    18  H    0.180158
 Sum of Mulliken charges =   0.00000

 Dipole moment (field-independent basis, Debye):
    X=             -0.6783    Y=             -2.8627    Z=              0.0005  Tot=              2.9420
 Quadrupole moment (field-independent basis, Debye-Ang):
   XX=            -88.2613   YY=            -71.0724   ZZ=            -77.2950
   XY=            -13.1398   XZ=              0.0012   YZ=              0.0009

 Normal termination of Gaussian 16 at Tue Sep 17 10:40:19 2024.
