 Gaussian 16, Revision C.02,

 ----------------------------------------------------------------------
 #p B3LYP/6-31G(d,p) EmpiricalDispersion=GD3BJ opt freq scf(xqc,tight)
 integral(grid=ultrafine)
 ----------------------------------------------------------------------

 ----------------------------------
 opt-freq conformers_unique/conf_aa
 ----------------------------------
 Symbolic Z-matrix:
 Charge =  0 Multiplicity = 1

 SCF Done:  E(RB3LYP) =  -707.908379805     A.U. after   14 cycles
 SCF Done:  E(RB3LYP) =  -707.909771727     A.U. after   11 cycles
 SCF Done:  E(RB3LYP) =  -707.909883768     A.U. after   10 cycles
 SCF Done:  E(RB3LYP) =  -707.909900395     A.U. after   10 cycles
 SCF Done:  E(RB3LYP) =  -707.909901201     A.U. after    8 cycles
 Optimization completed.
    -- Stationary point found.
 Normal termination of Gaussian 16 at Tue Sep 17 09:47:04 2024.

 ----------------------------------------------------------------------
 #P Geom=AllCheck Guess=TCheck SCRF=Check GenChk RB3LYP/6-31G(d,p) Freq
 ----------------------------------------------------------------------

 Structure from the checkpoint file:  "smiles_00043_conf_0.chk"
 ----------------------------------
 opt-freq conformers_unique/conf_aa
 ----------------------------------
 Charge =  0 Multiplicity = 1

 SCF Done:  E(RB3LYP) =  -707.909901201     A.U. after    1 cycles

                      1                      2                      3
                      A                      A                      A
 Frequencies --    176.7240               313.2403               420.0410
 Red. masses --      5.4502                 6.8223                 3.5243
 Frc consts  --      0.1003                 0.3944                 0.3664
 IR Inten    --      0.4022                 0.5131                 3.7018

                      4                      5                      6
                      A                      A                      A
 Frequencies --    422.7210               492.4372               628.1511
 Red. masses --     14.3577                 3.1972                 7.3752
 Frc consts  --      1.5116                 0.4568                 1.7146
 IR Inten    --      9.0596                 1.8296                 2.6746

                      7                      8                      9
                      A                      A                      A
 Frequencies --    740.9847               745.7769               780.0381
 Red. masses --      7.0132                 4.0533                 1.3370
 Frc consts  --      2.2688                 1.3282                 0.4793
 IR Inten    --     38.8681                 0.0520                44.3585

                     10                     11                     12
                      A                      A                      A
 Frequencies --    898.3044               976.8948              1005.3710
 Red. masses --      1.2840                 1.3916                 7.0275
 Frc consts  --      0.6105                 0.7824                 4.1851
 IR Inten    --      0.2618                 0.1754                 9.3471

                     13                     14                     15
                      A                      A                      A
 Frequencies --   1007.0291              1072.8810              1112.6241
 Red. masses --      1.2959                 2.5342                 1.8016
 Frc consts  --      0.7743                 1.7187                 1.3140
 IR Inten    --      0.0020                 8.4239                25.7983

                     16                     17                     18
                      A                      A                      A
 Frequencies --   1149.3908              1179.1821              1316.9729
 Red. masses --      2.6561                 1.1274                 4.0618
 Frc consts  --      2.0675                 0.9236                 4.1507
 IR Inten    --     90.1444                 2.3703                 2.0648

                     19                     20                     21
                      A                      A                      A
 Frequencies --   1324.1981              1460.2463              1497.5275
 Red. masses --      1.7194                 2.1495                 2.0684
 Frc consts  --      1.7763                 2.7005                 2.7329
 IR Inten    --      1.0071                63.6086                51.1713

                     22                     23                     24
                      A                      A                      A
 Frequencies --   1628.0358              1630.9169              3180.1624
 Red. masses --      6.0403                 5.4445                 1.0896
 Frc consts  --      9.4327                 8.5324                 6.4927
 IR Inten    --     51.3530                48.3194                15.0587

                     25                     26                     27
                      A                      A                      A
 Frequencies --   3199.4861              3220.1361              3234.5863
 Red. masses --      1.0893                 1.0960                 1.0955
 Frc consts  --      6.5701                 6.6956                 6.7530
 IR Inten    --      7.6763                11.9766                 1.2928

 - Thermochemistry -
 -------------------
 Temperature   298.150 Kelvin.  Pressure   1.00000 Atm.
 Atom     1 has atomic number 17 and mass  34.96885

 Molecular mass:   113.00323 amu.
 Principal axes and moments of inertia in atomic units:
                           1         2         3
     Eigenvalues --   306.856311115.830731422.68703
           X            0.99999  -0.00320  -0.00005
           Y            0.00320   0.99999  -0.00001
           Z            0.00005   0.00001   1.00000
 This molecule is an asymmetric top.
 Rotational symmetry number  1.
 Rotational temperatures (Kelvin)      0.28226     0.07762     0.06088
 Rotational constants (GHZ):           5.88139     1.61740     1.26854
 Zero-point vibrational energy     208234.3 (Joules/Mol)
                                   49.76920 (Kcal/Mol)
 Warning -- explicit consideration of   5 degrees of freedom as
           vibrations may cause significant error
 Vibrational temperatures:    254.27   450.68   604.35   608.20   708.51
          (Kelvin)            903.77  1066.11  1073.01  1122.30  1292.46
                             1405.53  1446.50  1448.89  1543.64  1600.82
                             1653.72  1696.58  1894.83  1905.23  2100.97
                             2154.61  2342.38  2346.53  4575.54  4603.35
                             4633.06  4653.85

 Zero-point correction=                           0.079312 (Hartree/Particle)
 Thermal correction to Energy=                    0.084671
 Thermal correction to Enthalpy=                  0.085615
 Thermal correction to Gibbs Free Energy=         0.049597
 Sum of electronic and zero-point Energies=           -707.830589
 Sum of electronic and thermal Energies=              -707.825230
 Sum of electronic and thermal Enthalpies=            -707.824286
 Sum of electronic and thermal Free Energies=         -707.860304

                     E (Thermal)             CV                S
                      KCal/Mol        Cal/Mol-Kelvin    Cal/Mol-Kelvin
 Total                   53.132             19.962             75.806
 Electronic               0.000              0.000              0.000
 Translational            0.889              2.981             40.082
 Rotational               0.889              2.981             27.679
 Vibrational             51.354             14.000              8.045
 Vibration     1          0.628              1.871              2.363
 Vibration     2          0.701              1.648              1.345
 Vibration     3          0.783              1.427              0.892
 Vibration     4          0.785              1.421              0.883
 Vibration     5          0.848              1.267              0.677

 Optimization completed.
    -- Stationary point found.
 Normal termination of Gaussian 16 at Tue Sep 17 09:47:21 2024.

 ----------------------------------------------------------------------
 #p M062X/def2tzvp geom=check guess=read scf(xqc,tight) integral(grid=u
 ltrafine) scrf(SMD, solvent=1,4-Dioxane) polar prop=efg volume
 ----------------------------------------------------------------------

 ---
 spe
 ---
 Structure from the checkpoint file:  "smiles_00043_conf_0.chk"
 Charge =  0 Multiplicity = 1

 SCF Done:  E(RM062X) =  -707.876899198     A.U. after   11 cycles

  Exact polarizability:     117.847      -2.326      88.831       0.003       0.000      47.462
 Approx polarizability:     125.886      -2.182     104.705       0.002       0.001      58.276

 Normal termination of Gaussian 16 at Tue Sep 17 09:51:07 2024.
 Gaussian 16:  ES64L-G16RevC.02  7-Dec-2021

 ----------------------------------------------------------------------
 #p M062X/def2tzvp geom=check guess=read scf(xqc,tight) integral(grid=u
 ltrafine) scrf(SMD, solvent=1,4-Dioxane) nmr=giao
 ----------------------------------------------------------------------

 ---
 spe
 ---
 Structure from the checkpoint file:  "smiles_00043_conf_0.chk"
 Charge =  0 Multiplicity = 1

                         Standard orientation:
 ---------------------------------------------------------------------
 Center     Atomic      Atomic             Coordinates (Angstroms)
 Number     Number       Type             X           Y           Z
 ---------------------------------------------------------------------
      1         17           0       -2.232496   -0.013060   -0.000128
      2          6           0       -0.469591   -0.016087    0.000069
      3          6           0        0.196099    1.212233    0.000047
      4          6           0        1.586909    1.179660    0.000075
      5          6           0        2.238579   -0.054750    0.000081
      6          6           0        1.460933   -1.209539    0.000026
      7          7           0        0.119477   -1.197236    0.000021
      8          1           0       -0.358591    2.142128    0.000015
      9          1           0        2.151993    2.106431    0.000088
     10          1           0        3.320738   -0.122004    0.000107
     11          1           0        1.924377   -2.192974    0.000033
 ---------------------------------------------------------------------

 SCF Done:  E(RM062X) =  -707.876899198     A.U. after    1 cycles

      1  Cl   Isotropic =   600.1304   Anisotropy =   631.1976

      2  C    Isotropic =     3.7041   Anisotropy =   123.9288

      3  C    Isotropic =    39.5447   Anisotropy =   179.5364

      4  C    Isotropic =    22.0842   Anisotropy =   238.6543

      5  C    Isotropic =    41.9939   Anisotropy =   210.2895

      6  C    Isotropic =    10.9029   Anisotropy =   201.0653

      7  N    Isotropic =  -129.0825   Anisotropy =   573.8313

      8  H    Isotropic =    23.7181   Anisotropy =     9.1857

      9  H    Isotropic =    23.3033   Anisotropy =     6.3805

     10  H    Isotropic =    23.8259   Anisotropy =     5.9112

     11  H    Isotropic =    22.5132   Anisotropy =     6.8146

 The electronic state is 1-A.
 Alpha  occ. eigenvalues -- -102.64581 -14.76683 -10.64324 -10.59077 -10.57318
 Alpha  occ. eigenvalues --  -10.56629 -10.55956  -9.80857  -7.53043  -7.52549
 Alpha  occ. eigenvalues --   -7.52523  -1.08179  -0.95377  -0.91893  -0.84906
 Alpha  occ. eigenvalues --   -0.73375  -0.70947  -0.60768  -0.57129  -0.54724
 Alpha  occ. eigenvalues --   -0.50467  -0.50368  -0.48409  -0.44052  -0.40885
 Alpha  occ. eigenvalues --   -0.38346  -0.35958  -0.34823  -0.31572
 Alpha virt. eigenvalues --   -0.00929   0.00238   0.06761   0.09830   0.11112
 Alpha virt. eigenvalues --    0.12266   0.13756   0.14217   0.16692   0.19773
 Alpha virt. eigenvalues --    0.20781   0.22812   0.23055   0.25356   0.27293

 Mulliken charges:
               1
     1  Cl  -0.095135
     2  C    0.153853
     3  C   -0.204175
     4  C   -0.101612
     5  C   -0.166397
     6  C   -0.045975
     7  N   -0.229923
     8  H    0.176896
     9  H    0.175221
    10  H    0.168242
    11  H    0.169006
 Sum of Mulliken charges =  -0.00000

 Dipole moment (field-independent basis, Debye):
    X=              3.4855    Y=              2.1341    Z=              0.0001  Tot=              4.0870
 Quadrupole moment (field-independent basis, Debye-Ang):
   XX=            -42.2765   YY=            -44.3516   ZZ=            -49.6376
   XY=             -1.3886   XZ=              0.0003   YZ=             -0.0000

 Normal termination of Gaussian 16 at Tue Sep 17 09:52:53 2024.
