 Gaussian 16, Revision C.02,

 ----------------------------------------------------------------------
 #p B3LYP/6-31G(d,p) EmpiricalDispersion=GD3BJ opt freq scf(xqc,tight)
 integral(grid=ultrafine)
 ----------------------------------------------------------------------

 ----------------------------------
 opt-freq conformers_unique/conf_aa
 ----------------------------------
 Symbolic Z-matrix:
 Charge =  0 Multiplicity = 1

 SCF Done:  E(RB3LYP) =  -3010.21418697     A.U. after   15 cycles
 SCF Done:  E(RB3LYP) =  -3010.21557987     A.U. after   12 cycles
 SCF Done:  E(RB3LYP) =  -3010.21561198     A.U. after    9 cycles
 SCF Done:  E(RB3LYP) =  -3010.21561462     A.U. after    8 cycles
 Optimization completed.
    -- Stationary point found.
 Normal termination of Gaussian 16 at Tue Sep 17 09:46:00 2024.

 ----------------------------------------------------------------------
 #P Geom=AllCheck Guess=TCheck SCRF=Check GenChk RB3LYP/6-31G(d,p) Freq
 ----------------------------------------------------------------------

 Structure from the checkpoint file:  "smiles_00044_conf_0.chk"
 ----------------------------------
 opt-freq conformers_unique/conf_aa
 ----------------------------------
 Charge =  0 Multiplicity = 1

 SCF Done:  E(RB3LYP) =  -3010.21561462     A.U. after    1 cycles

                      1                      2                      3
                      A                      A                      A
 Frequencies --     89.9821               147.0097               161.9649
 Red. masses --     10.2573                 9.2839                 4.0683
 Frc consts  --      0.0489                 0.1182                 0.0629
 IR Inten    --      1.0925                 2.4652                 9.5354

                      4                      5                      6
                      A                      A                      A
 Frequencies --    187.8413               235.2279               291.5344
 Red. masses --      3.9313                 2.8422                12.9367
 Frc consts  --      0.0817                 0.0927                 0.6478
 IR Inten    --      2.5804                17.6075                 4.9020

                      7                      8                      9
                      A                      A                      A
 Frequencies --    309.9861               442.5222               498.5755
 Red. masses --      6.8781                 1.1510                 3.5658
 Frc consts  --      0.3894                 0.1328                 0.5222
 IR Inten    --      2.6301                69.6791                27.6526

                     10                     11                     12
                      A                      A                      A
 Frequencies --    512.7747               535.5791               572.9638
 Red. masses --      4.0209                 5.4255                 6.6499
 Frc consts  --      0.6229                 0.9169                 1.2862
 IR Inten    --      0.1636                 3.0763                 7.5159

                     13                     14                     15
                      A                      A                      A
 Frequencies --    621.5073               705.5012               731.6024
 Red. masses --      6.7144                 4.5834                 7.0088
 Frc consts  --      1.5281                 1.3441                 2.2103
 IR Inten    --     16.1011                 1.7264                 0.1063

                     16                     17                     18
                      A                      A                      A
 Frequencies --    758.5350               823.6281               833.1609
 Red. masses --      2.3290                 1.8438                 6.0970
 Frc consts  --      0.7895                 0.7369                 2.4936
 IR Inten    --     33.6832                13.0155                19.6716

                     19                     20                     21
                      A                      A                      A
 Frequencies --    852.2044               941.2850               997.2323
 Red. masses --      5.1246                 1.3729                 1.3546
 Frc consts  --      2.1928                 0.7167                 0.7937
 IR Inten    --     14.2366                 0.0165                 0.7825

                     22                     23                     24
                      A                      A                      A
 Frequencies --   1019.3557              1060.2331              1078.6532
 Red. masses --      1.7385                 2.2000                 1.9297
 Frc consts  --      1.0643                 1.4570                 1.3228
 IR Inten    --      0.1967                26.5216                 0.2596

                     25                     26                     27
                      A                      A                      A
 Frequencies --   1118.7948              1163.1988              1187.5068
 Red. masses --      4.5721                 1.7180                 1.0810
 Frc consts  --      3.3719                 1.3696                 0.8981
 IR Inten    --     59.8528                16.3506                 0.0972

                     28                     29                     30
                      A                      A                      A
 Frequencies --   1201.7556              1237.1139              1289.6990
 Red. masses --      1.5700                 2.6851                 2.0980
 Frc consts  --      1.3359                 2.4212                 2.0560
 IR Inten    --      9.3702                 2.3577                28.8871

                     31                     32                     33
                      A                      A                      A
 Frequencies --   1332.4841              1385.5589              1440.6414
 Red. masses --      2.2447                 4.9548                 2.0278
 Frc consts  --      2.3482                 5.6043                 2.4796
 IR Inten    --     35.0530                14.1414                43.1575

                     34                     35                     36
                      A                      A                      A
 Frequencies --   1475.1969              1505.7235              1515.1195
 Red. masses --      2.9375                 2.7551                 1.1225
 Frc consts  --      3.7664                 3.6803                 1.5182
 IR Inten    --      3.7008                40.7504                 4.7812

                     37                     38                     39
                      A                      A                      A
 Frequencies --   1635.7301              1667.9130              1831.7994
 Red. masses --      7.2210                 8.2374                10.6538
 Frc consts  --     11.3834                13.5017                21.0624
 IR Inten    --     24.7006                 8.0020               444.6412

                     40                     41                     42
                      A                      A                      A
 Frequencies --   3028.1455              3057.7811              3198.5479
 Red. masses --      1.0573                 1.1064                 1.0878
 Frc consts  --      5.7124                 6.0952                 6.5569
 IR Inten    --     23.4829                16.0092                 5.5510

                     43                     44                     45
                      A                      A                      A
 Frequencies --   3218.6667              3224.0048              3678.9882
 Red. masses --      1.0921                 1.0959                 1.0790
 Frc consts  --      6.6661                 6.7116                 8.6042
 IR Inten    --      1.3621                 6.0863                58.1478

 - Thermochemistry -
 -------------------
 Temperature   298.150 Kelvin.  Pressure   1.00000 Atm.
 Atom     1 has atomic number  8 and mass  15.99491

 Molecular mass:   210.96327 amu.
 Principal axes and moments of inertia in atomic units:
                           1         2         3
     Eigenvalues --  1107.262483491.488454587.46782
           X            0.99982  -0.01884   0.00000
           Y            0.01884   0.99982  -0.00000
           Z           -0.00000   0.00000   1.00000
 This molecule is an asymmetric top.
 Rotational symmetry number  1.
 Warning -- assumption of classical behavior for rotation
           may cause significant error
 Rotational temperatures (Kelvin)      0.07822     0.02481     0.01888
 Rotational constants (GHZ):           1.62991     0.51690     0.39341
 Zero-point vibrational energy     327796.1 (Joules/Mol)
                                   78.34515 (Kcal/Mol)
 Warning -- explicit consideration of  12 degrees of freedom as
           vibrations may cause significant error
 Vibrational temperatures:    129.46   211.51   233.03   270.26   338.44
          (Kelvin)            419.45   446.00   636.69   717.34   737.77
                              770.58   824.37   894.21  1015.06  1052.61
                             1091.36  1185.02  1198.73  1226.13  1354.30
                             1434.79  1466.63  1525.44  1551.94  1609.70
                             1673.58  1708.56  1729.06  1779.93  1855.59
                             1917.15  1993.51  2072.76  2122.48  2166.40
                             2179.92  2353.45  2399.75  2635.55  4356.83
                             4399.47  4602.00  4630.94  4638.62  5293.24

 Zero-point correction=                           0.124851 (Hartree/Particle)
 Thermal correction to Energy=                    0.133699
 Thermal correction to Enthalpy=                  0.134643
 Thermal correction to Gibbs Free Energy=         0.089619
 Sum of electronic and zero-point Energies=          -3010.090764
 Sum of electronic and thermal Energies=             -3010.081916
 Sum of electronic and thermal Enthalpies=           -3010.080972
 Sum of electronic and thermal Free Energies=        -3010.125995

                     E (Thermal)             CV                S
                      KCal/Mol        Cal/Mol-Kelvin    Cal/Mol-Kelvin
 Total                   83.897             33.606             94.760
 Electronic               0.000              0.000              0.000
 Translational            0.889              2.981             41.943
 Rotational               0.889              2.981             31.251
 Vibrational             82.120             27.644             21.566
 Vibration     1          0.602              1.956              3.660
 Vibration     2          0.617              1.906              2.711
 Vibration     3          0.622              1.889              2.527
 Vibration     4          0.633              1.857              2.249
 Vibration     5          0.655              1.787              1.839
 Vibration     6          0.687              1.689              1.465
 Vibration     7          0.699              1.655              1.362
 Vibration     8          0.802              1.377              0.819
 Vibration     9          0.854              1.253              0.662
 Vibration    10          0.868              1.222              0.627
 Vibration    11          0.891              1.171              0.575
 Vibration    12          0.929              1.090              0.499

 Optimization completed.
    -- Stationary point found.
 Normal termination of Gaussian 16 at Tue Sep 17 09:47:03 2024.

 ----------------------------------------------------------------------
 #p M062X/def2tzvp geom=check guess=read scf(xqc,tight) integral(grid=u
 ltrafine) scrf(SMD, solvent=1,4-Dioxane) polar prop=efg volume
 ----------------------------------------------------------------------

 ---
 spe
 ---
 Structure from the checkpoint file:  "smiles_00044_conf_0.chk"
 Charge =  0 Multiplicity = 1

 SCF Done:  E(RM062X) =  -3012.65735480     A.U. after   12 cycles

  Exact polarizability:     177.685       8.303     155.592       0.001      -0.000      74.322
 Approx polarizability:     192.481      12.981     171.886       0.002       0.001      94.486

 Normal termination of Gaussian 16 at Tue Sep 17 10:16:58 2024.
 Gaussian 16:  ES64L-G16RevC.02  7-Dec-2021

 ----------------------------------------------------------------------
 #p M062X/def2tzvp geom=check guess=read scf(xqc,tight) integral(grid=u
 ltrafine) scrf(SMD, solvent=1,4-Dioxane) nmr=giao
 ----------------------------------------------------------------------

 ---
 spe
 ---
 Structure from the checkpoint file:  "smiles_00044_conf_0.chk"
 Charge =  0 Multiplicity = 1

                         Standard orientation:
 ---------------------------------------------------------------------
 Center     Atomic      Atomic             Coordinates (Angstroms)
 Number     Number       Type             X           Y           Z
 ---------------------------------------------------------------------
      1          8           0        3.920177   -0.340417    0.000125
      2          6           0        2.718182   -0.543722    0.000032
      3          7           0        2.085517   -1.770121   -0.000257
      4          6           0        0.632174   -1.709150    0.000020
      5          6           0        0.389928   -0.222384    0.000011
      6          6           0       -0.792517    0.498910   -0.000002
      7         35           0       -2.461556   -0.428116    0.000016
      8          6           0       -0.754566    1.893756   -0.000022
      9          6           0        0.478137    2.557974   -0.000032
     10          6           0        1.678141    1.844583   -0.000024
     11          6           0        1.607978    0.457039   -0.000001
     12          1           0        2.613194   -2.628449    0.000158
     13          1           0        0.193140   -2.187490    0.885456
     14          1           0        0.192789   -2.187627   -0.885154
     15          1           0       -1.681493    2.455308   -0.000035
     16          1           0        0.489856    3.643124   -0.000047
     17          1           0        2.642198    2.341351   -0.000021
 ---------------------------------------------------------------------

 SCF Done:  E(RM062X) =  -3012.65735480     A.U. after    1 cycles

      1  O    Isotropic =   -73.8830   Anisotropy =   633.3654

      2  C    Isotropic =    -2.6012   Anisotropy =    95.3149

      3  N    Isotropic =   123.7883   Anisotropy =   154.3163

      4  C    Isotropic =   136.5991   Anisotropy =    37.1445

      5  C    Isotropic =    15.7054   Anisotropy =   202.1800

      6  C    Isotropic =    30.7601   Anisotropy =   133.3651

      7  Br   Isotropic =  2163.4839   Anisotropy =  1091.5795

      8  C    Isotropic =    27.8386   Anisotropy =   189.9378

      9  C    Isotropic =    33.4536   Anisotropy =   212.1882

     10  C    Isotropic =    39.6037   Anisotropy =   221.7528

     11  C    Isotropic =    27.3000   Anisotropy =   191.9639

     12  H    Isotropic =    26.1701   Anisotropy =     9.7497

     13  H    Isotropic =    27.3461   Anisotropy =     6.7039

     14  H    Isotropic =    27.3462   Anisotropy =     6.7040

     15  H    Isotropic =    23.4347   Anisotropy =    10.6495

     16  H    Isotropic =    23.5718   Anisotropy =     5.9848

     17  H    Isotropic =    23.1369   Anisotropy =     6.6328

 The electronic state is 1-A.
 Alpha  occ. eigenvalues -- -485.38581 -63.37049 -57.18995 -57.18759 -57.18753
 Alpha  occ. eigenvalues --  -19.59867 -14.77746 -10.65100 -10.61483 -10.59620
 Alpha  occ. eigenvalues --  -10.57669 -10.56844 -10.56317 -10.56203 -10.56129
 Alpha  occ. eigenvalues --   -9.03684  -6.86089  -6.85216  -6.85196  -2.89466
 Alpha  occ. eigenvalues --   -2.89149  -2.89125  -2.88312  -2.88312  -1.16267
 Alpha  occ. eigenvalues --   -1.06076  -0.98721  -0.91210  -0.87781  -0.83752
 Alpha  occ. eigenvalues --   -0.80162  -0.74054  -0.69372  -0.64613  -0.59208
 Alpha  occ. eigenvalues --   -0.57750  -0.56462  -0.55924  -0.52559  -0.50401
 Alpha  occ. eigenvalues --   -0.49310  -0.48245  -0.47484  -0.46219  -0.44424
 Alpha  occ. eigenvalues --   -0.41601  -0.38728  -0.36232  -0.33804  -0.32821
 Alpha  occ. eigenvalues --   -0.32357  -0.30723
 Alpha virt. eigenvalues --   -0.01906   0.00260   0.03039   0.07076   0.08935
 Alpha virt. eigenvalues --    0.09456   0.09775   0.11956   0.13171   0.13842
 Alpha virt. eigenvalues --    0.14113   0.16238   0.17559   0.18698   0.19491

 Mulliken charges:
               1
     1  O   -0.378194
     2  C    0.233064
     3  N   -0.332748
     4  C   -0.158035
     5  C    0.065915
     6  C   -0.054211
     7  Br  -0.100518
     8  C   -0.150167
     9  C   -0.129370
    10  C   -0.229542
    11  C    0.083295
    12  H    0.266219
    13  H    0.177181
    14  H    0.177178
    15  H    0.179169
    16  H    0.171116
    17  H    0.179648
 Sum of Mulliken charges =  -0.00000

 Dipole moment (field-independent basis, Debye):
    X=             -2.9527    Y=             -0.6120    Z=              0.0007  Tot=              3.0155
 Quadrupole moment (field-independent basis, Debye-Ang):
   XX=            -96.5075   YY=            -59.0293   ZZ=            -78.0060
   XY=             -2.7256   XZ=              0.0013   YZ=             -0.0024

 Normal termination of Gaussian 16 at Tue Sep 17 10:27:59 2024.
