 Gaussian 16, Revision C.02,

 ----------------------------------------------------------------------
 #p B3LYP/6-31G(d,p) EmpiricalDispersion=GD3BJ opt freq scf(xqc,tight)
 integral(grid=ultrafine)
 ----------------------------------------------------------------------

 ----------------------------------
 opt-freq conformers_unique/conf_aa
 ----------------------------------
 Symbolic Z-matrix:
 Charge =  0 Multiplicity = 1

 SCF Done:  E(RB3LYP) =  -1016.65252995     A.U. after   15 cycles
 SCF Done:  E(RB3LYP) =  -1016.65513464     A.U. after   12 cycles
 SCF Done:  E(RB3LYP) =  -1016.65546447     A.U. after   12 cycles
 SCF Done:  E(RB3LYP) =  -1016.65573975     A.U. after   12 cycles
 SCF Done:  E(RB3LYP) =  -1016.65587591     A.U. after   11 cycles
 SCF Done:  E(RB3LYP) =  -1016.65590262     A.U. after   11 cycles
 SCF Done:  E(RB3LYP) =  -1016.65593046     A.U. after   10 cycles
 SCF Done:  E(RB3LYP) =  -1016.65594012     A.U. after    9 cycles
 SCF Done:  E(RB3LYP) =  -1016.65594501     A.U. after    9 cycles
 SCF Done:  E(RB3LYP) =  -1016.65594603     A.U. after    8 cycles
 SCF Done:  E(RB3LYP) =  -1016.65594632     A.U. after    8 cycles
 SCF Done:  E(RB3LYP) =  -1016.65594638     A.U. after    7 cycles
 SCF Done:  E(RB3LYP) =  -1016.65594640     A.U. after    6 cycles
 Optimization completed.
    -- Stationary point found.
 Normal termination of Gaussian 16 at Tue Sep 17 09:58:37 2024.

 ----------------------------------------------------------------------
 #P Geom=AllCheck Guess=TCheck SCRF=Check GenChk RB3LYP/6-31G(d,p) Freq
 ----------------------------------------------------------------------

 Structure from the checkpoint file:  "smiles_00000_conf_0.chk"
 ----------------------------------
 opt-freq conformers_unique/conf_aa
 ----------------------------------
 Charge =  0 Multiplicity = 1

 SCF Done:  E(RB3LYP) =  -1016.65594640     A.U. after    1 cycles

                      1                      2                      3
                      A                      A                      A
 Frequencies --     43.5727                61.9907                75.1208
 Red. masses --      4.6556                 3.4505                 3.5714
 Frc consts  --      0.0052                 0.0078                 0.0119
 IR Inten    --      0.3495                 0.5148                 0.2356

                      4                      5                      6
                      A                      A                      A
 Frequencies --     96.0146               143.6676               192.0805
 Red. masses --      4.3813                 5.8084                 3.8546
 Frc consts  --      0.0238                 0.0706                 0.0838
 IR Inten    --      2.7985                 0.8805                 0.1676

                      7                      8                      9
                      A                      A                      A
 Frequencies --    240.7877               266.9432               276.4680
 Red. masses --      4.4993                 3.9941                 2.4681
 Frc consts  --      0.1537                 0.1677                 0.1111
 IR Inten    --     10.2035                 0.6830                 0.2337

                     10                     11                     12
                      A                      A                      A
 Frequencies --    294.8585               327.5929               406.2369
 Red. masses --      3.9542                 5.6515                 5.7392
 Frc consts  --      0.2026                 0.3573                 0.5580
 IR Inten    --      4.0684                 2.7152                 2.4318

                     13                     14                     15
                      A                      A                      A
 Frequencies --    422.1753               490.9902               503.0462
 Red. masses --      3.0968                 3.9826                 6.7772
 Frc consts  --      0.3252                 0.5657                 1.0105
 IR Inten    --      0.1872                 9.8608                23.2811

                     16                     17                     18
                      A                      A                      A
 Frequencies --    578.3269               601.2375               645.1670
 Red. masses --      1.9658                 3.9452                 6.9326
 Frc consts  --      0.3874                 0.8402                 1.7002
 IR Inten    --      5.4039                 3.3812                 1.7215

                     19                     20                     21
                      A                      A                      A
 Frequencies --    700.4448               715.9562               761.5974
 Red. masses --      5.3926                 4.1182                 3.5234
 Frc consts  --      1.5588                 1.2438                 1.2041
 IR Inten    --      7.0386                 3.5959                21.8748

                     22                     23                     24
                      A                      A                      A
 Frequencies --    772.7211               842.8648               856.6647
 Red. masses --      3.6750                 1.2824                 1.7259
 Frc consts  --      1.2929                 0.5368                 0.7463
 IR Inten    --     15.7181                 6.4297                25.0693

                     25                     26                     27
                      A                      A                      A
 Frequencies --    862.2854               891.0689               917.1017
 Red. masses --      1.7231                 1.9550                 3.2503
 Frc consts  --      0.7548                 0.9146                 1.6107
 IR Inten    --     10.0748                 8.5264                 7.4527

                     28                     29                     30
                      A                      A                      A
 Frequencies --    929.6424               951.3104               969.5502
 Red. masses --      2.2027                 1.6004                 1.3268
 Frc consts  --      1.1216                 0.8533                 0.7348
 IR Inten    --      2.4551                11.9491                 0.0782

                     31                     32                     33
                      A                      A                      A
 Frequencies --    980.5990               986.3932              1034.4352
 Red. masses --      1.3400                 1.7660                 3.4750
 Frc consts  --      0.7592                 1.0124                 2.1909
 IR Inten    --      1.8921                 1.4289                33.1821

                     34                     35                     36
                      A                      A                      A
 Frequencies --   1047.0035              1112.1288              1135.5489
 Red. masses --      1.8847                 3.1449                 1.3205
 Frc consts  --      1.2173                 2.2917                 1.0032
 IR Inten    --      0.8499                63.0311                 9.3486

                     37                     38                     39
                      A                      A                      A
 Frequencies --   1144.4927              1171.8398              1185.0829
 Red. masses --      1.6646                 1.7796                 2.1530
 Frc consts  --      1.2847                 1.4398                 1.7816
 IR Inten    --      7.1244                 5.7734                 6.4100

                     40                     41                     42
                      A                      A                      A
 Frequencies --   1203.3112              1208.5745              1236.1604
 Red. masses --      1.2715                 1.6045                 2.3513
 Frc consts  --      1.0848                 1.3808                 2.1169
 IR Inten    --      3.3459                10.0249                26.5529

                     43                     44                     45
                      A                      A                      A
 Frequencies --   1258.6922              1280.3510              1325.0558
 Red. masses --      1.2730                 1.3225                 1.2940
 Frc consts  --      1.1883                 1.2773                 1.3386
 IR Inten    --     16.3729                13.5073                 0.3427

                     46                     47                     48
                      A                      A                      A
 Frequencies --   1328.1851              1345.0717              1357.4972
 Red. masses --      1.3415                 9.5398                 1.2938
 Frc consts  --      1.3943                10.1691                 1.4048
 IR Inten    --      0.3144                 3.9970                 2.6756

                     49                     50                     51
                      A                      A                      A
 Frequencies --   1376.3670              1385.9118              1427.3488
 Red. masses --      1.5115                 1.4104                 4.3460
 Frc consts  --      1.6870                 1.5962                 5.2168
 IR Inten    --      1.5158                 6.6643               289.6408

                     52                     53                     54
                      A                      A                      A
 Frequencies --   1445.3650              1504.1336              1511.7306
 Red. masses --      3.8458                 1.0913                 1.1029
 Frc consts  --      4.7336                 1.4546                 1.4850
 IR Inten    --    218.0582                 3.3924                 2.9344

                     55                     56                     57
                      A                      A                      A
 Frequencies --   1528.8059              1533.6308              1541.7229
 Red. masses --      1.0839                 2.2850                 1.1412
 Frc consts  --      1.4926                 3.1665                 1.5982
 IR Inten    --      0.6345                13.0875                 3.1879

                     58                     59                     60
                      A                      A                      A
 Frequencies --   1623.7639              1651.9728              1731.0902
 Red. masses --      7.2978                 5.8299                11.9943
 Frc consts  --     11.3368                 9.3738                21.1769
 IR Inten    --      3.4458                56.5145               260.3832

                     61                     62                     63
                      A                      A                      A
 Frequencies --   3017.7972              3055.7854              3058.4695
 Red. masses --      1.0716                 1.0691                 1.0653
 Frc consts  --      5.7499                 5.8816                 5.8712
 IR Inten    --     42.7205                24.0049                17.7224

                     64                     65                     66
                      A                      A                      A
 Frequencies --   3064.0608              3104.4237              3118.4749
 Red. masses --      1.0613                 1.1000                 1.0970
 Frc consts  --      5.8705                 6.2459                 6.2853
 IR Inten    --     24.4548                26.9339                22.2721

                     67                     68                     69
                      A                      A                      A
 Frequencies --   3122.2351              3128.4290              3208.9661
 Red. masses --      1.0969                 1.1046                 1.0878
 Frc consts  --      6.3000                 6.3695                 6.5998
 IR Inten    --     20.5240                39.5717                 5.1247

                     70                     71                     72
                      A                      A                      A
 Frequencies --   3214.8358              3224.6216              3227.9555
 Red. masses --      1.0883                 1.0950                 1.0956
 Frc consts  --      6.6273                 6.7084                 6.7260
 IR Inten    --      0.1605                 5.3632                 1.5151

 - Thermochemistry -
 -------------------
 Temperature   298.150 Kelvin.  Pressure   1.00000 Atm.
 Atom     1 has atomic number  8 and mass  15.99491

 Molecular mass:   209.06074 amu.
 Principal axes and moments of inertia in atomic units:
                           1         2         3
     Eigenvalues --  1061.978366707.698837406.01409
           X            0.99989  -0.01483   0.00211
           Y            0.01479   0.99971   0.01905
           Z           -0.00239  -0.01902   0.99982
 This molecule is an asymmetric top.
 Rotational symmetry number  1.
 Warning -- assumption of classical behavior for rotation
           may cause significant error
 Rotational temperatures (Kelvin)      0.08156     0.01291     0.01170
 Rotational constants (GHZ):           1.69941     0.26906     0.24369
 Zero-point vibrational energy     556178.6 (Joules/Mol)
                                  132.92988 (Kcal/Mol)
 Warning -- explicit consideration of  17 degrees of freedom as
           vibrations may cause significant error
 Vibrational temperatures:     62.69    89.19   108.08   138.14   206.71
          (Kelvin)            276.36   346.44   384.07   397.78   424.24
                              471.33   584.48   607.42   706.43   723.77
                              832.08   865.05   928.25  1007.78  1030.10
                             1095.77  1111.77  1212.69  1232.55  1240.64
                             1282.05  1319.50  1337.55  1368.72  1394.97
                             1410.86  1419.20  1488.32  1506.40  1600.11
                             1633.80  1646.67  1686.02  1705.07  1731.30
                             1738.87  1778.56  1810.98  1842.14  1906.46
                             1910.96  1935.26  1953.14  1980.29  1994.02
                             2053.64  2079.56  2164.11  2175.04  2199.61
                             2206.55  2218.20  2336.23  2376.82  2490.65
                             4341.94  4396.59  4400.46  4408.50  4466.57
                             4486.79  4492.20  4501.11  4616.99  4625.43
                             4639.51  4644.31

 Zero-point correction=                           0.211837 (Hartree/Particle)
 Thermal correction to Energy=                    0.224063
 Thermal correction to Enthalpy=                  0.225008
 Thermal correction to Gibbs Free Energy=         0.171977
 Sum of electronic and zero-point Energies=          -1016.444109
 Sum of electronic and thermal Energies=             -1016.431883
 Sum of electronic and thermal Enthalpies=           -1016.430939
 Sum of electronic and thermal Free Energies=        -1016.483969

                     E (Thermal)             CV                S
                      KCal/Mol        Cal/Mol-Kelvin    Cal/Mol-Kelvin
 Total                  140.602             46.576            111.612
 Electronic               0.000              0.000              0.000
 Translational            0.889              2.981             41.916
 Rotational               0.889              2.981             32.334
 Vibrational            138.824             40.614             37.362
 Vibration     1          0.595              1.980              5.090
 Vibration     2          0.597              1.972              4.393
 Vibration     3          0.599              1.966              4.014
 Vibration     4          0.603              1.952              3.534
 Vibration     5          0.616              1.909              2.754
 Vibration     6          0.634              1.851              2.208
 Vibration     7          0.658              1.778              1.797
 Vibration     8          0.672              1.734              1.616
 Vibration     9          0.678              1.717              1.555
 Vibration    10          0.689              1.683              1.446
 Vibration    11          0.711              1.620              1.272
 Vibration    12          0.771              1.457              0.940
 Vibration    13          0.785              1.422              0.885
 Vibration    14          0.847              1.270              0.681
 Vibration    15          0.858              1.243              0.651
 Vibration    16          0.935              1.078              0.488
 Vibration    17          0.959              1.029              0.448

 Optimization completed.
    -- Stationary point found.
 Normal termination of Gaussian 16 at Tue Sep 17 10:00:29 2024.

 ----------------------------------------------------------------------
 #p M062X/def2tzvp geom=check guess=read scf(xqc,tight) integral(grid=u
 ltrafine) scrf(SMD, solvent=1,4-Dioxane) polar prop=efg volume
 ----------------------------------------------------------------------

 ---
 spe
 ---
 Structure from the checkpoint file:  "smiles_00000_conf_0.chk"
 Charge =  0 Multiplicity = 1

 SCF Done:  E(RM062X) =  -1016.57157826     A.U. after   12 cycles

  Exact polarizability:     233.955       5.622     160.223      -7.634      14.017     117.971
 Approx polarizability:     217.356       9.300     188.214      -9.590      20.359     143.625

 Normal termination of Gaussian 16 at Tue Sep 17 10:54:30 2024.
 Gaussian 16:  ES64L-G16RevC.02  7-Dec-2021

 ----------------------------------------------------------------------
 #p M062X/def2tzvp geom=check guess=read scf(xqc,tight) integral(grid=u
 ltrafine) scrf(SMD, solvent=1,4-Dioxane) nmr=giao
 ----------------------------------------------------------------------

 ---
 spe
 ---
 Structure from the checkpoint file:  "smiles_00000_conf_0.chk"
 Charge =  0 Multiplicity = 1

                         Standard orientation:
 ---------------------------------------------------------------------
 Center     Atomic      Atomic             Coordinates (Angstroms)
 Number     Number       Type             X           Y           Z
 ---------------------------------------------------------------------
      1          8           0        1.420544    2.240755   -0.290664
      2          6           0        1.172609    1.036320   -0.228670
      3          6           0       -0.247676    0.557745   -0.141545
      4          6           0       -0.715819   -0.594715   -0.782569
      5          6           0       -2.061730   -0.949654   -0.717140
      6          6           0       -2.938794   -0.143499    0.005088
      7         17           0       -4.633487   -0.592527    0.107112
      8          6           0       -2.499169    1.018085    0.640255
      9          6           0       -1.156382    1.368141    0.550030
     10          7           0        2.174643    0.105755   -0.250433
     11          6           0        3.563257    0.598069   -0.295990
     12          6           0        4.405763   -0.651113   -0.013157
     13          6           0        3.485071   -1.498061    0.877240
     14          6           0        2.108844   -1.282628    0.236135
     15          1           0       -0.036419   -1.210068   -1.361248
     16          1           0       -2.429028   -1.834993   -1.222818
     17          1           0       -3.201576    1.636765    1.186472
     18          1           0       -0.791369    2.281403    1.006157
     19          1           0        3.774547    1.059319   -1.264385
     20          1           0        3.698078    1.373180    0.466903
     21          1           0        5.360455   -0.407611    0.458887
     22          1           0        4.619569   -1.185904   -0.945403
     23          1           0        3.483418   -1.105220    1.899998
     24          1           0        3.765181   -2.553642    0.918617
     25          1           0        1.279067   -1.414567    0.932814
     26          1           0        1.964661   -1.984167   -0.596610
 ---------------------------------------------------------------------

 SCF Done:  E(RM062X) =  -1016.57157826     A.U. after    1 cycles

      1  O    Isotropic =  -143.0806   Anisotropy =   683.4299

      2  C    Isotropic =    -4.4084   Anisotropy =   133.9097

      3  C    Isotropic =    26.3186   Anisotropy =   204.8824

      4  C    Isotropic =    33.7998   Anisotropy =   213.1549

      5  C    Isotropic =    37.3699   Anisotropy =   184.6421

      6  C    Isotropic =    18.4703   Anisotropy =   149.6957

      7  Cl   Isotropic =   674.7110   Anisotropy =   504.5906

      8  C    Isotropic =    33.9529   Anisotropy =   185.9843

      9  C    Isotropic =    30.0803   Anisotropy =   218.6698

     10  N    Isotropic =   104.4623   Anisotropy =   182.2046

     11  C    Isotropic =   134.4977   Anisotropy =    41.7140

     12  C    Isotropic =   158.0165   Anisotropy =    20.4461

     13  C    Isotropic =   155.8604   Anisotropy =    18.9079

     14  C    Isotropic =   130.9272   Anisotropy =    39.9052

     15  H    Isotropic =    23.4081   Anisotropy =    10.0234

     16  H    Isotropic =    23.7371   Anisotropy =     8.9186

     17  H    Isotropic =    23.5751   Anisotropy =     8.6864

     18  H    Isotropic =    23.0798   Anisotropy =     8.9387

     19  H    Isotropic =    28.3595   Anisotropy =     8.2425

     20  H    Isotropic =    28.1796   Anisotropy =     8.3080

     21  H    Isotropic =    29.8489   Anisotropy =    10.8930

     22  H    Isotropic =    29.9547   Anisotropy =    10.0623

     23  H    Isotropic =    30.1787   Anisotropy =     9.3759

     24  H    Isotropic =    30.0166   Anisotropy =    10.9045

     25  H    Isotropic =    28.2706   Anisotropy =     6.9847

     26  H    Isotropic =    28.2116   Anisotropy =     8.8907

 The electronic state is 1-A.
 Alpha  occ. eigenvalues -- -102.64982 -19.58928 -14.77351 -10.64261 -10.61412
 Alpha  occ. eigenvalues --  -10.57602 -10.56525 -10.56273 -10.56192 -10.56033
 Alpha  occ. eigenvalues --  -10.55891 -10.55700 -10.54116 -10.53903  -9.81229
 Alpha  occ. eigenvalues --   -7.53424  -7.52918  -7.52901  -1.15597  -1.04916
 Alpha  occ. eigenvalues --   -0.99952  -0.94388  -0.89188  -0.86060  -0.84670
 Alpha  occ. eigenvalues --   -0.82844  -0.74126  -0.71087  -0.69296  -0.67396
 Alpha  occ. eigenvalues --   -0.63595  -0.60820  -0.57903  -0.55967  -0.54704
 Alpha  occ. eigenvalues --   -0.52581  -0.51975  -0.50541  -0.49842  -0.49437
 Alpha  occ. eigenvalues --   -0.47555  -0.47110  -0.46396  -0.44056  -0.43123
 Alpha  occ. eigenvalues --   -0.42163  -0.41485  -0.40916  -0.40081  -0.39326
 Alpha  occ. eigenvalues --   -0.38158  -0.33643  -0.32389  -0.30498  -0.30038
 Alpha virt. eigenvalues --   -0.01331   0.00604   0.05718   0.06468   0.07727
 Alpha virt. eigenvalues --    0.09449   0.10477   0.11098   0.11736   0.11871
 Alpha virt. eigenvalues --    0.12458   0.13294   0.13833   0.14623   0.15605

 Mulliken charges:
               1
     1  O   -0.425180
     2  C    0.280626
     3  C    0.061091
     4  C   -0.201830
     5  C   -0.179399
     6  C    0.090372
     7  Cl  -0.095490
     8  C   -0.180643
     9  C   -0.188092
    10  N   -0.150629
    11  C   -0.192953
    12  C   -0.293541
    13  C   -0.281316
    14  C   -0.252622
    15  H    0.193403
    16  H    0.176075
    17  H    0.177790
    18  H    0.182052
    19  H    0.156092
    20  H    0.162507
    21  H    0.155119
    22  H    0.154189
    23  H    0.156886
    24  H    0.155210
    25  H    0.187133
    26  H    0.153148
 Sum of Mulliken charges =  -0.00000

 Dipole moment (field-independent basis, Debye):
    X=              2.5745    Y=             -3.9605    Z=              0.7231  Tot=              4.7787
 Quadrupole moment (field-independent basis, Debye-Ang):
   XX=            -85.9478   YY=            -94.0867   ZZ=            -88.4095
   XY=             -9.2534   XZ=              0.5912   YZ=              5.3533

 Normal termination of Gaussian 16 at Tue Sep 17 11:14:33 2024.
