 Gaussian 16, Revision C.02,

 ----------------------------------------------------------------------
 #p B3LYP/6-31G(d,p) EmpiricalDispersion=GD3BJ opt freq scf(xqc,tight)
 integral(grid=ultrafine)
 ----------------------------------------------------------------------

 ----------------------------------
 opt-freq conformers_unique/conf_ab
 ----------------------------------
 Symbolic Z-matrix:
 Charge =  0 Multiplicity = 1

 SCF Done:  E(RB3LYP) =  -1016.64945609     A.U. after   15 cycles
 SCF Done:  E(RB3LYP) =  -1016.65168438     A.U. after   12 cycles
 SCF Done:  E(RB3LYP) =  -1016.65180713     A.U. after   11 cycles
 SCF Done:  E(RB3LYP) =  -1016.65199274     A.U. after   12 cycles
 SCF Done:  E(RB3LYP) =  -1016.65113050     A.U. after   14 cycles
 SCF Done:  E(RB3LYP) =  -1016.65274177     A.U. after   12 cycles
 SCF Done:  E(RB3LYP) =  -1016.65297375     A.U. after   14 cycles
 SCF Done:  E(RB3LYP) =  -1016.65387497     A.U. after   12 cycles
 SCF Done:  E(RB3LYP) =  -1016.65467196     A.U. after   11 cycles
 SCF Done:  E(RB3LYP) =  -1016.65551656     A.U. after   12 cycles
 SCF Done:  E(RB3LYP) =  -1016.65581053     A.U. after   12 cycles
 SCF Done:  E(RB3LYP) =  -1016.65587421     A.U. after   11 cycles
 SCF Done:  E(RB3LYP) =  -1016.65593820     A.U. after   11 cycles
 SCF Done:  E(RB3LYP) =  -1016.65594484     A.U. after    9 cycles
 SCF Done:  E(RB3LYP) =  -1016.65594623     A.U. after    8 cycles
 SCF Done:  E(RB3LYP) =  -1016.65594635     A.U. after    7 cycles
 SCF Done:  E(RB3LYP) =  -1016.65594639     A.U. after    7 cycles
 Optimization completed.
    -- Stationary point found.
 Normal termination of Gaussian 16 at Tue Sep 17 10:00:06 2024.

 ----------------------------------------------------------------------
 #P Geom=AllCheck Guess=TCheck SCRF=Check GenChk RB3LYP/6-31G(d,p) Freq
 ----------------------------------------------------------------------

 Structure from the checkpoint file:  "smiles_00000_conf_1.chk"
 ----------------------------------
 opt-freq conformers_unique/conf_ab
 ----------------------------------
 Charge =  0 Multiplicity = 1

 SCF Done:  E(RB3LYP) =  -1016.65594639     A.U. after    1 cycles

                      1                      2                      3
                      A                      A                      A
 Frequencies --     43.5790                61.9737                75.1804
 Red. masses --      4.6568                 3.4499                 3.5746
 Frc consts  --      0.0052                 0.0078                 0.0119
 IR Inten    --      0.3500                 0.5143                 0.2372

                      4                      5                      6
                      A                      A                      A
 Frequencies --     96.0518               143.6609               192.1484
 Red. masses --      4.3774                 5.8096                 3.8583
 Frc consts  --      0.0238                 0.0706                 0.0839
 IR Inten    --      2.7958                 0.8806                 0.1678

                      7                      8                      9
                      A                      A                      A
 Frequencies --    240.7953               266.9846               276.4972
 Red. masses --      4.4982                 4.0165                 2.4541
 Frc consts  --      0.1537                 0.1687                 0.1105
 IR Inten    --     10.2157                 0.6758                 0.2291

                     10                     11                     12
                      A                      A                      A
 Frequencies --    294.8133               327.6059               406.2207
 Red. masses --      3.9647                 5.6509                 5.7401
 Frc consts  --      0.2030                 0.3573                 0.5581
 IR Inten    --      4.0678                 2.7189                 2.4309

                     13                     14                     15
                      A                      A                      A
 Frequencies --    422.1713               490.9934               503.0467
 Red. masses --      3.0967                 3.9804                 6.7831
 Frc consts  --      0.3252                 0.5654                 1.0113
 IR Inten    --      0.1867                 9.8472                23.2973

                     16                     17                     18
                      A                      A                      A
 Frequencies --    578.3263               601.2068               645.1710
 Red. masses --      1.9654                 3.9474                 6.9329
 Frc consts  --      0.3873                 0.8406                 1.7002
 IR Inten    --      5.3995                 3.3893                 1.7226

                     19                     20                     21
                      A                      A                      A
 Frequencies --    700.4378               715.9548               761.5979
 Red. masses --      5.3917                 4.1174                 3.5231
 Frc consts  --      1.5585                 1.2435                 1.2040
 IR Inten    --      7.0371                 3.5928                21.8768

                     22                     23                     24
                      A                      A                      A
 Frequencies --    772.7157               842.8616               856.6842
 Red. masses --      3.6751                 1.2825                 1.7255
 Frc consts  --      1.2929                 0.5368                 0.7461
 IR Inten    --     15.7215                 6.4402                25.0577

                     25                     26                     27
                      A                      A                      A
 Frequencies --    862.3426               891.0655               917.1227
 Red. masses --      1.7237                 1.9552                 3.2504
 Frc consts  --      0.7552                 0.9147                 1.6108
 IR Inten    --     10.1001                 8.4865                 7.4741

                     28                     29                     30
                      A                      A                      A
 Frequencies --    929.6437               951.3057               969.5365
 Red. masses --      2.2025                 1.5999                 1.3267
 Frc consts  --      1.1215                 0.8531                 0.7348
 IR Inten    --      2.4537                11.9283                 0.0779

                     31                     32                     33
                      A                      A                      A
 Frequencies --    980.6213               986.3820              1034.4322
 Red. masses --      1.3400                 1.7660                 3.4744
 Frc consts  --      0.7592                 1.0124                 2.1905
 IR Inten    --      1.8909                 1.4319                33.1815

                     34                     35                     36
                      A                      A                      A
 Frequencies --   1046.9838              1112.1372              1135.5586
 Red. masses --      1.8845                 3.1451                 1.3205
 Frc consts  --      1.2171                 2.2919                 1.0032
 IR Inten    --      0.8497                63.0336                 9.3518

                     37                     38                     39
                      A                      A                      A
 Frequencies --   1144.5046              1171.8604              1185.0582
 Red. masses --      1.6645                 1.7798                 2.1525
 Frc consts  --      1.2846                 1.4400                 1.7810
 IR Inten    --      7.1250                 5.7405                 6.4174

                     40                     41                     42
                      A                      A                      A
 Frequencies --   1203.3160              1208.5843              1236.1232
 Red. masses --      1.2716                 1.6045                 2.3506
 Frc consts  --      1.0848                 1.3809                 2.1162
 IR Inten    --      3.3569                10.0256                26.4688

                     43                     44                     45
                      A                      A                      A
 Frequencies --   1258.7303              1280.3490              1325.0548
 Red. masses --      1.2734                 1.3225                 1.2940
 Frc consts  --      1.1887                 1.2773                 1.3386
 IR Inten    --     16.4626                13.4450                 0.3422

                     46                     47                     48
                      A                      A                      A
 Frequencies --   1328.1855              1345.0737              1357.5085
 Red. masses --      1.3415                 9.5366                 1.2939
 Frc consts  --      1.3943                10.1657                 1.4048
 IR Inten    --      0.3153                 4.0072                 2.6739

                     49                     50                     51
                      A                      A                      A
 Frequencies --   1376.3824              1385.9052              1427.3241
 Red. masses --      1.5114                 1.4105                 4.3514
 Frc consts  --      1.6870                 1.5962                 5.2230
 IR Inten    --      1.5143                 6.6624               290.3892

                     52                     53                     54
                      A                      A                      A
 Frequencies --   1445.3587              1504.1397              1511.7302
 Red. masses --      3.8426                 1.0913                 1.1029
 Frc consts  --      4.7297                 1.4547                 1.4851
 IR Inten    --    217.4851                 3.3928                 2.9376

                     55                     56                     57
                      A                      A                      A
 Frequencies --   1528.8017              1533.6312              1541.7173
 Red. masses --      1.0839                 2.2849                 1.1413
 Frc consts  --      1.4926                 3.1664                 1.5983
 IR Inten    --      0.6347                13.0806                 3.1917

                     58                     59                     60
                      A                      A                      A
 Frequencies --   1623.7539              1651.9826              1731.0551
 Red. masses --      7.2976                 5.8300                11.9937
 Frc consts  --     11.3362                 9.3741                21.1751
 IR Inten    --      3.4594                56.5192               260.2976

                     61                     62                     63
                      A                      A                      A
 Frequencies --   3017.8728              3055.6567              3058.4326
 Red. masses --      1.0716                 1.0690                 1.0654
 Frc consts  --      5.7502                 5.8811                 5.8715
 IR Inten    --     42.7197                23.8876                17.7670

                     64                     65                     66
                      A                      A                      A
 Frequencies --   3064.0431              3104.5135              3118.4464
 Red. masses --      1.0613                 1.0999                 1.0969
 Frc consts  --      5.8705                 6.2459                 6.2848
 IR Inten    --     24.5187                26.9435                22.1396

                     67                     68                     69
                      A                      A                      A
 Frequencies --   3122.1851              3128.4055              3208.9955
 Red. masses --      1.0969                 1.1046                 1.0878
 Frc consts  --      6.3000                 6.3695                 6.5999
 IR Inten    --     20.6234                39.6075                 5.1166

                     70                     71                     72
                      A                      A                      A
 Frequencies --   3214.8317              3224.6213              3227.9529
 Red. masses --      1.0883                 1.0950                 1.0956
 Frc consts  --      6.6273                 6.7084                 6.7259
 IR Inten    --      0.1615                 5.3769                 1.5108

 - Thermochemistry -
 -------------------
 Temperature   298.150 Kelvin.  Pressure   1.00000 Atm.
 Atom     1 has atomic number  8 and mass  15.99491

 Molecular mass:   209.06074 amu.
 Principal axes and moments of inertia in atomic units:
                           1         2         3
     Eigenvalues --  1061.919336707.872177406.46045
           X            0.99989   0.01483   0.00211
           Y           -0.01479   0.99971  -0.01904
           Z           -0.00239   0.01901   0.99982
 This molecule is an asymmetric top.
 Rotational symmetry number  1.
 Warning -- assumption of classical behavior for rotation
           may cause significant error
 Rotational temperatures (Kelvin)      0.08156     0.01291     0.01169
 Rotational constants (GHZ):           1.69951     0.26905     0.24367
 Zero-point vibrational energy     556179.2 (Joules/Mol)
                                  132.93001 (Kcal/Mol)
 Warning -- explicit consideration of  17 degrees of freedom as
           vibrations may cause significant error
 Vibrational temperatures:     62.70    89.17   108.17   138.20   206.70
          (Kelvin)            276.46   346.45   384.13   397.82   424.17
                              471.35   584.46   607.41   706.43   723.77
                              832.08   865.00   928.26  1007.77  1030.10
                             1095.77  1111.77  1212.69  1232.58  1240.72
                             1282.04  1319.53  1337.55  1368.72  1394.95
                             1410.90  1419.18  1488.32  1506.38  1600.12
                             1633.82  1646.69  1686.05  1705.03  1731.30
                             1738.88  1778.51  1811.03  1842.14  1906.46
                             1910.96  1935.26  1953.15  1980.31  1994.01
                             2053.60  2079.55  2164.12  2175.04  2199.60
                             2206.55  2218.19  2336.22  2376.83  2490.60
                             4342.05  4396.41  4400.40  4408.47  4466.70
                             4486.75  4492.13  4501.08  4617.03  4625.43
                             4639.51  4644.30

 Zero-point correction=                           0.211837 (Hartree/Particle)
 Thermal correction to Energy=                    0.224063
 Thermal correction to Enthalpy=                  0.225008
 Thermal correction to Gibbs Free Energy=         0.171978
 Sum of electronic and zero-point Energies=          -1016.444109
 Sum of electronic and thermal Energies=             -1016.431883
 Sum of electronic and thermal Enthalpies=           -1016.430939
 Sum of electronic and thermal Free Energies=        -1016.483968

                     E (Thermal)             CV                S
                      KCal/Mol        Cal/Mol-Kelvin    Cal/Mol-Kelvin
 Total                  140.602             46.575            111.609
 Electronic               0.000              0.000              0.000
 Translational            0.889              2.981             41.916
 Rotational               0.889              2.981             32.334
 Vibrational            138.824             40.614             37.359
 Vibration     1          0.595              1.980              5.089
 Vibration     2          0.597              1.972              4.393
 Vibration     3          0.599              1.966              4.013
 Vibration     4          0.603              1.952              3.533
 Vibration     5          0.616              1.909              2.755
 Vibration     6          0.634              1.851              2.207
 Vibration     7          0.658              1.778              1.797
 Vibration     8          0.672              1.734              1.616
 Vibration     9          0.678              1.717              1.555
 Vibration    10          0.689              1.683              1.446
 Vibration    11          0.711              1.620              1.272
 Vibration    12          0.771              1.457              0.940
 Vibration    13          0.785              1.422              0.885
 Vibration    14          0.847              1.270              0.681
 Vibration    15          0.858              1.243              0.651
 Vibration    16          0.935              1.078              0.488
 Vibration    17          0.959              1.029              0.448

                           ! Non-Optimized Parameters !
 Normal termination of Gaussian 16 at Tue Sep 17 10:01:58 2024.

 ----------------------------------------------------------------------
 #p M062X/def2tzvp geom=check guess=read scf(xqc,tight) integral(grid=u
 ltrafine) scrf(SMD, solvent=1,4-Dioxane) polar prop=efg volume
 ----------------------------------------------------------------------

 ---
 spe
 ---
 Structure from the checkpoint file:  "smiles_00000_conf_1.chk"
 Charge =  0 Multiplicity = 1

 SCF Done:  E(RM062X) =  -1016.57157842     A.U. after   12 cycles

  Exact polarizability:     233.963      -5.619     160.237      -7.630     -14.012     117.955
 Approx polarizability:     217.362      -9.296     188.230      -9.586     -20.351     143.608

 Normal termination of Gaussian 16 at Tue Sep 17 10:55:55 2024.
 Gaussian 16:  ES64L-G16RevC.02  7-Dec-2021

 ----------------------------------------------------------------------
 #p M062X/def2tzvp geom=check guess=read scf(xqc,tight) integral(grid=u
 ltrafine) scrf(SMD, solvent=1,4-Dioxane) nmr=giao
 ----------------------------------------------------------------------

 ---
 spe
 ---
 Structure from the checkpoint file:  "smiles_00000_conf_1.chk"
 Charge =  0 Multiplicity = 1

                         Standard orientation:
 ---------------------------------------------------------------------
 Center     Atomic      Atomic             Coordinates (Angstroms)
 Number     Number       Type             X           Y           Z
 ---------------------------------------------------------------------
      1          8           0       -1.420404    2.240716    0.290617
      2          6           0       -1.172535    1.036261    0.228636
      3          6           0        0.247728    0.557635    0.141613
      4          6           0        0.715828   -0.595054    0.782237
      5          6           0        2.061750   -0.949964    0.716769
      6          6           0        2.938867   -0.143545   -0.005089
      7         17           0        4.633565   -0.592511   -0.107154
      8          6           0        2.499282    1.018295   -0.639835
      9          6           0        1.156498    1.368305   -0.549587
     10          7           0       -2.174687    0.105800    0.250238
     11          6           0       -2.109030   -1.282634   -0.236269
     12          6           0       -3.485504   -1.498190   -0.876836
     13          6           0       -4.405848   -0.650918    0.013603
     14          6           0       -3.563214    0.598364    0.295457
     15          1           0        0.036430   -1.210625    1.360677
     16          1           0        2.429004   -1.835488    1.222158
     17          1           0        3.201741    1.637184   -1.185755
     18          1           0        0.791488    2.281738   -1.005371
     19          1           0       -1.279524   -1.414575   -0.933283
     20          1           0       -1.964469   -1.984090    0.596469
     21          1           0       -3.765655   -2.553776   -0.917795
     22          1           0       -3.484217   -1.105668   -1.899720
     23          1           0       -4.619174   -1.185316    0.946192
     24          1           0       -5.360772   -0.407663   -0.458101
     25          1           0       -3.774341    1.060484    1.263459
     26          1           0       -3.698010    1.372841   -0.468107
 ---------------------------------------------------------------------

 SCF Done:  E(RM062X) =  -1016.57157842     A.U. after    1 cycles

      1  O    Isotropic =  -143.0909   Anisotropy =   683.4142

      2  C    Isotropic =    -4.4093   Anisotropy =   133.9147

      3  C    Isotropic =    26.3240   Anisotropy =   204.8757

      4  C    Isotropic =    33.8050   Anisotropy =   213.1580

      5  C    Isotropic =    37.3705   Anisotropy =   184.6399

      6  C    Isotropic =    18.4694   Anisotropy =   149.7012

      7  Cl   Isotropic =   674.7139   Anisotropy =   504.5728

      8  C    Isotropic =    33.9532   Anisotropy =   185.9839

      9  C    Isotropic =    30.0742   Anisotropy =   218.6740

     10  N    Isotropic =   104.4618   Anisotropy =   182.2255

     11  C    Isotropic =   130.9307   Anisotropy =    39.9069

     12  C    Isotropic =   155.8583   Anisotropy =    18.9009

     13  C    Isotropic =   158.0149   Anisotropy =    20.4296

     14  C    Isotropic =   134.4880   Anisotropy =    41.6939

     15  H    Isotropic =    23.4078   Anisotropy =    10.0235

     16  H    Isotropic =    23.7371   Anisotropy =     8.9188

     17  H    Isotropic =    23.5752   Anisotropy =     8.6865

     18  H    Isotropic =    23.0790   Anisotropy =     8.9403

     19  H    Isotropic =    28.2706   Anisotropy =     6.9798

     20  H    Isotropic =    28.2109   Anisotropy =     8.8908

     21  H    Isotropic =    30.0160   Anisotropy =    10.9042

     22  H    Isotropic =    30.1781   Anisotropy =     9.3763

     23  H    Isotropic =    29.9548   Anisotropy =    10.0612

     24  H    Isotropic =    29.8491   Anisotropy =    10.8935

     25  H    Isotropic =    28.3586   Anisotropy =     8.2396

     26  H    Isotropic =    28.1812   Anisotropy =     8.3103

 The electronic state is 1-A.
 Alpha  occ. eigenvalues -- -102.64982 -19.58928 -14.77350 -10.64261 -10.61412
 Alpha  occ. eigenvalues --  -10.57602 -10.56525 -10.56273 -10.56192 -10.56033
 Alpha  occ. eigenvalues --  -10.55891 -10.55699 -10.54116 -10.53903  -9.81229
 Alpha  occ. eigenvalues --   -7.53424  -7.52918  -7.52901  -1.15597  -1.04916
 Alpha  occ. eigenvalues --   -0.99952  -0.94388  -0.89188  -0.86060  -0.84670
 Alpha  occ. eigenvalues --   -0.82843  -0.74126  -0.71086  -0.69296  -0.67396
 Alpha  occ. eigenvalues --   -0.63595  -0.60820  -0.57903  -0.55967  -0.54703
 Alpha  occ. eigenvalues --   -0.52580  -0.51974  -0.50540  -0.49843  -0.49437
 Alpha  occ. eigenvalues --   -0.47555  -0.47111  -0.46395  -0.44056  -0.43123
 Alpha  occ. eigenvalues --   -0.42162  -0.41485  -0.40915  -0.40081  -0.39326
 Alpha  occ. eigenvalues --   -0.38158  -0.33643  -0.32389  -0.30498  -0.30037
 Alpha virt. eigenvalues --   -0.01332   0.00604   0.05719   0.06468   0.07727
 Alpha virt. eigenvalues --    0.09450   0.10478   0.11098   0.11736   0.11872
 Alpha virt. eigenvalues --    0.12459   0.13294   0.13832   0.14623   0.15605

 Mulliken charges:
               1
     1  O   -0.425199
     2  C    0.280654
     3  C    0.061090
     4  C   -0.201827
     5  C   -0.179410
     6  C    0.090374
     7  Cl  -0.095484
     8  C   -0.180644
     9  C   -0.188087
    10  N   -0.150619
    11  C   -0.252604
    12  C   -0.281351
    13  C   -0.293522
    14  C   -0.192982
    15  H    0.193401
    16  H    0.176074
    17  H    0.177789
    18  H    0.182061
    19  H    0.187119
    20  H    0.153137
    21  H    0.155220
    22  H    0.156899
    23  H    0.154185
    24  H    0.155122
    25  H    0.156113
    26  H    0.162492
 Sum of Mulliken charges =  -0.00000

 Dipole moment (field-independent basis, Debye):
    X=             -2.5746    Y=             -3.9604    Z=             -0.7231  Tot=              4.7787
 Quadrupole moment (field-independent basis, Debye-Ang):
   XX=            -85.9461   YY=            -94.0829   ZZ=            -88.4130
   XY=              9.2532   XZ=              0.5926   YZ=             -5.3515

 Normal termination of Gaussian 16 at Tue Sep 17 11:15:48 2024.
