 Gaussian 16, Revision C.02,

 ----------------------------------------------------------------------
 #p B3LYP/6-31G(d,p) EmpiricalDispersion=GD3BJ opt freq scf(xqc,tight)
 integral(grid=ultrafine)
 ----------------------------------------------------------------------

 ----------------------------------
 opt-freq conformers_unique/conf_aa
 ----------------------------------
 Symbolic Z-matrix:
 Charge =  0 Multiplicity = 1

 SCF Done:  E(RB3LYP) =  -3295.04428478     A.U. after   14 cycles
 SCF Done:  E(RB3LYP) =  -3295.04623335     A.U. after   12 cycles
 SCF Done:  E(RB3LYP) =  -3295.04642435     A.U. after   11 cycles
 SCF Done:  E(RB3LYP) =  -3295.04643784     A.U. after    8 cycles
 Optimization completed.
    -- Stationary point found.
 Normal termination of Gaussian 16 at Tue Sep 17 09:54:43 2024.

 ----------------------------------------------------------------------
 #P Geom=AllCheck Guess=TCheck SCRF=Check GenChk RB3LYP/6-31G(d,p) Freq
 ----------------------------------------------------------------------

 Structure from the checkpoint file:  "smiles_00001_conf_0.chk"
 ----------------------------------
 opt-freq conformers_unique/conf_aa
 ----------------------------------
 Charge =  0 Multiplicity = 1

 SCF Done:  E(RB3LYP) =  -3295.04643784     A.U. after    1 cycles

                      1                      2                      3
                      A                      A                      A
 Frequencies --     79.4034               190.2989               274.8290
 Red. masses --     12.4301                11.4837                30.4069
 Frc consts  --      0.0462                 0.2450                 1.3532
 IR Inten    --      0.2270                 0.5751                 0.0704

                      4                      5                      6
                      A                      A                      A
 Frequencies --    296.3108               364.7328               422.5467
 Red. masses --     10.9730                 7.3812                 4.2527
 Frc consts  --      0.5676                 0.5785                 0.4474
 IR Inten    --      2.0716                 3.4907                 0.0000

                      7                      8                      9
                      A                      A                      A
 Frequencies --    491.9346               511.3335               639.4763
 Red. masses --      3.0732                14.7099                 9.7230
 Frc consts  --      0.4382                 2.2660                 2.3426
 IR Inten    --      0.7399                29.8937                11.5526

                     10                     11                     12
                      A                      A                      A
 Frequencies --    785.1416               800.4969               958.0564
 Red. masses --      7.9358                 9.3552                 1.5318
 Frc consts  --      2.8823                 3.5320                 0.8284
 IR Inten    --     13.7134                 3.9542                 7.2589

                     13                     14                     15
                      A                      A                      A
 Frequencies --    992.4483              1022.7127              1137.9434
 Red. masses --      1.3657                 8.0821                 2.9712
 Frc consts  --      0.7925                 4.9806                 2.2668
 IR Inten    --      0.0000                36.4198                 8.5552

                     16                     17                     18
                      A                      A                      A
 Frequencies --   1206.8640              1247.3533              1283.8862
 Red. masses --      4.3137                12.1707                 1.9596
 Frc consts  --      3.7019                11.1569                 1.9032
 IR Inten    --    284.8531                 0.6578                 9.0372

                     19                     20                     21
                      A                      A                      A
 Frequencies --   1400.5907              1434.1953              1575.7229
 Red. masses --      2.2060                 2.2067                 7.9527
 Frc consts  --      2.5497                 2.6743                11.6339
 IR Inten    --      6.4861               254.9070                74.5831

                     22                     23                     24
                      A                      A                      A
 Frequencies --   1603.5955              3196.7690              3197.5520
 Red. masses --      5.4882                 1.0927                 1.0934
 Frc consts  --      8.3152                 6.5790                 6.5869
 IR Inten    --     36.0312                 3.2963                 3.8391

 - Thermochemistry -
 -------------------
 Temperature   298.150 Kelvin.  Pressure   1.00000 Atm.
 Atom     1 has atomic number 17 and mass  34.96885

 Molecular mass:   191.90899 amu.
 Principal axes and moments of inertia in atomic units:
                           1         2         3
     Eigenvalues --   297.772783954.495134252.26790
           X            1.00000  -0.00000   0.00005
           Y            0.00000   1.00000   0.00003
           Z           -0.00005  -0.00003   1.00000
 This molecule is an asymmetric top.
 Rotational symmetry number  1.
 Rotational temperatures (Kelvin)      0.29087     0.02190     0.02037
 Rotational constants (GHZ):           6.06080     0.45638     0.42442
 Zero-point vibrational energy     150216.2 (Joules/Mol)
                                   35.90254 (Kcal/Mol)
 Warning -- explicit consideration of   8 degrees of freedom as
           vibrations may cause significant error
 Vibrational temperatures:    114.24   273.80   395.42   426.33   524.77
          (Kelvin)            607.95   707.78   735.69   920.06  1129.64
                             1151.74  1378.43  1427.91  1471.46  1637.25
                             1736.41  1794.66  1847.23  2015.14  2063.49
                             2267.11  2307.22  4599.44  4600.56

 Zero-point correction=                           0.057214 (Hartree/Particle)
 Thermal correction to Energy=                    0.063854
 Thermal correction to Enthalpy=                  0.064798
 Thermal correction to Gibbs Free Energy=         0.024224
 Sum of electronic and zero-point Energies=          -3294.989223
 Sum of electronic and thermal Energies=             -3294.982584
 Sum of electronic and thermal Enthalpies=           -3294.981639
 Sum of electronic and thermal Free Energies=        -3295.022213

                     E (Thermal)             CV                S
                      KCal/Mol        Cal/Mol-Kelvin    Cal/Mol-Kelvin
 Total                   40.069             23.167             85.395
 Electronic               0.000              0.000              0.000
 Translational            0.889              2.981             41.661
 Rotational               0.889              2.981             29.994
 Vibrational             38.292             17.205             13.740
 Vibration     1          0.600              1.963              3.906
 Vibration     2          0.634              1.853              2.225
 Vibration     3          0.677              1.720              1.566
 Vibration     4          0.690              1.681              1.438
 Vibration     5          0.738              1.545              1.102
 Vibration     6          0.785              1.421              0.883
 Vibration     7          0.848              1.268              0.679
 Vibration     8          0.866              1.225              0.630

 Optimization completed.
    -- Stationary point found.
 Normal termination of Gaussian 16 at Tue Sep 17 09:55:04 2024.

 ----------------------------------------------------------------------
 #p M062X/def2tzvp geom=check guess=read scf(xqc,tight) integral(grid=u
 ltrafine) scrf(SMD, solvent=1,4-Dioxane) polar prop=efg volume
 ----------------------------------------------------------------------

 ---
 spe
 ---
 Structure from the checkpoint file:  "smiles_00001_conf_0.chk"
 Charge =  0 Multiplicity = 1

 SCF Done:  E(RM062X) =  -3297.51520248     A.U. after   12 cycles

  Exact polarizability:     159.934       0.000      91.136      -0.005      -0.001      56.321
 Approx polarizability:     164.476       0.000     115.061      -0.003      -0.001      72.143

 Normal termination of Gaussian 16 at Tue Sep 17 10:00:16 2024.
 Gaussian 16:  ES64L-G16RevC.02  7-Dec-2021

 ----------------------------------------------------------------------
 #p M062X/def2tzvp geom=check guess=read scf(xqc,tight) integral(grid=u
 ltrafine) scrf(SMD, solvent=1,4-Dioxane) nmr=giao
 ----------------------------------------------------------------------

 ---
 spe
 ---
 Structure from the checkpoint file:  "smiles_00001_conf_0.chk"
 Charge =  0 Multiplicity = 1

                         Standard orientation:
 ---------------------------------------------------------------------
 Center     Atomic      Atomic             Coordinates (Angstroms)
 Number     Number       Type             X           Y           Z
 ---------------------------------------------------------------------
      1         17           0        3.712987   -0.000006   -0.000314
      2          6           0        1.967730    0.000008    0.000158
      3          7           0        1.384346   -1.195184    0.000075
      4          6           0        0.048238   -1.190633    0.000053
      5          6           0       -0.675937    0.000011    0.000051
      6         35           0       -2.569290   -0.000003    0.000093
      7          6           0        0.048232    1.190644   -0.000017
      8          7           0        1.384353    1.195186    0.000003
      9          1           0       -0.453059   -2.154461    0.000089
     10          1           0       -0.453051    2.154478   -0.000035
 ---------------------------------------------------------------------

 SCF Done:  E(RM062X) =  -3297.51520248     A.U. after    1 cycles

      1  Cl   Isotropic =   555.9011   Anisotropy =   672.2367

      2  C    Isotropic =    -5.0922   Anisotropy =   111.6846

      3  N    Isotropic =  -113.3073   Anisotropy =   509.3617

      4  C    Isotropic =    -1.2918   Anisotropy =   197.2323

      5  C    Isotropic =    28.9500   Anisotropy =   150.3912

      6  Br   Isotropic =  2167.8256   Anisotropy =  1115.9629

      7  C    Isotropic =    -1.2899   Anisotropy =   197.2318

      8  N    Isotropic =  -113.3010   Anisotropy =   509.3604

      9  H    Isotropic =    22.4169   Anisotropy =    11.0499

     10  H    Isotropic =    22.4169   Anisotropy =    11.0498

 The electronic state is 1-A.
 Alpha  occ. eigenvalues -- -485.40035-102.65833 -63.38507 -57.20462 -57.20210
 Alpha  occ. eigenvalues --  -57.20205 -14.79093 -14.79092 -10.68797 -10.62993
 Alpha  occ. eigenvalues --  -10.62604 -10.62596  -9.82121  -9.05156  -7.54316
 Alpha  occ. eigenvalues --   -7.53812  -7.53764  -6.87601  -6.86663  -6.86646
 Alpha  occ. eigenvalues --   -2.90978  -2.90636  -2.90616  -2.89742  -2.89742
 Alpha  occ. eigenvalues --   -1.14203  -1.03186  -0.98352  -0.93642  -0.84877
 Alpha  occ. eigenvalues --   -0.78406  -0.73813  -0.63084  -0.62088  -0.54902
 Alpha  occ. eigenvalues --   -0.52021  -0.51873  -0.50385  -0.44535  -0.41085
 Alpha  occ. eigenvalues --   -0.40908  -0.39696  -0.39408  -0.38335  -0.34830
 Alpha  occ. eigenvalues --   -0.32502
 Alpha virt. eigenvalues --   -0.03854  -0.02368   0.01951   0.06996   0.09415
 Alpha virt. eigenvalues --    0.11509   0.11938   0.13586   0.15250   0.18253
 Alpha virt. eigenvalues --    0.18506   0.21621   0.21963   0.23905   0.24919

 Mulliken charges:
               1
     1  Cl  -0.043510
     2  C    0.199873
     3  N   -0.230899
     4  C   -0.015772
     5  C    0.002604
     6  Br  -0.056247
     7  C   -0.015768
     8  N   -0.230897
     9  H    0.195309
    10  H    0.195309
 Sum of Mulliken charges =  -0.00000

 Dipole moment (field-independent basis, Debye):
    X=             -2.8667    Y=              0.0000    Z=              0.0002  Tot=              2.8667
 Quadrupole moment (field-independent basis, Debye-Ang):
   XX=            -70.6262   YY=            -64.1411   ZZ=            -65.0353
   XY=              0.0000   XZ=              0.0001   YZ=             -0.0000

 Normal termination of Gaussian 16 at Tue Sep 17 10:03:01 2024.
